 VARIABLES = X,Y,Z,DU1,DU2,DU3,U1,U2,U3,S11,S22,S33,S12,S13,S23,Vf
 ZONE, T="0.1000D-01" F=FEPOINT, I=   12 J=    2 ET=BRICK
   0.0000000000E+00   0.0000000000E+00   0.0000000000E+00   0.0000000000E+00   0.0000000000E+00   0.0000000000E+00   0.0000000000E+00   0.0000000000E+00   0.0000000000E+00   0.0000000000E+00   0.0000000000E+00   0.0000000000E+00   0.0000000000E+00   0.0000000000E+00   0.0000000000E+00   0.0000000000E+00
   0.1000000000E+01   0.0000000000E+00   0.0000000000E+00   0.0000000000E+00   0.0000000000E+00   0.0000000000E+00   0.0000000000E+00   0.0000000000E+00   0.0000000000E+00   0.0000000000E+00   0.0000000000E+00   0.0000000000E+00   0.0000000000E+00   0.0000000000E+00   0.0000000000E+00   0.0000000000E+00
   0.1000000000E+01   0.1000000000E+01   0.0000000000E+00   0.0000000000E+00   0.0000000000E+00   0.0000000000E+00   0.0000000000E+00   0.0000000000E+00   0.0000000000E+00   0.0000000000E+00   0.0000000000E+00   0.0000000000E+00   0.0000000000E+00   0.0000000000E+00   0.0000000000E+00   0.0000000000E+00
   0.0000000000E+00   0.1000000000E+01   0.0000000000E+00   0.0000000000E+00   0.0000000000E+00   0.0000000000E+00   0.0000000000E+00   0.0000000000E+00   0.0000000000E+00   0.0000000000E+00   0.0000000000E+00   0.0000000000E+00   0.0000000000E+00   0.0000000000E+00   0.0000000000E+00   0.0000000000E+00
   0.0000000000E+00   0.0000000000E+00   0.1000000000E+01   0.0000000000E+00   0.0000000000E+00   0.0000000000E+00   0.0000000000E+00   0.0000000000E+00   0.0000000000E+00   0.0000000000E+00   0.0000000000E+00   0.0000000000E+00   0.0000000000E+00   0.0000000000E+00   0.0000000000E+00   0.0000000000E+00
   0.1000000000E+01   0.0000000000E+00   0.1000000000E+01   0.0000000000E+00   0.0000000000E+00   0.0000000000E+00   0.0000000000E+00   0.0000000000E+00   0.0000000000E+00   0.0000000000E+00   0.0000000000E+00   0.0000000000E+00   0.0000000000E+00   0.0000000000E+00   0.0000000000E+00   0.0000000000E+00
   0.1000000000E+01   0.1000000000E+01   0.1000000000E+01   0.0000000000E+00   0.0000000000E+00   0.0000000000E+00   0.0000000000E+00   0.0000000000E+00   0.0000000000E+00   0.0000000000E+00   0.0000000000E+00   0.0000000000E+00   0.0000000000E+00   0.0000000000E+00   0.0000000000E+00   0.0000000000E+00
   0.0000000000E+00   0.1000000000E+01   0.1000000000E+01   0.0000000000E+00   0.0000000000E+00   0.0000000000E+00   0.0000000000E+00   0.0000000000E+00   0.0000000000E+00   0.0000000000E+00   0.0000000000E+00   0.0000000000E+00   0.0000000000E+00   0.0000000000E+00   0.0000000000E+00   0.0000000000E+00
   0.2000100000E+01   0.0000000000E+00   0.0000000000E+00   0.1000000000E-03   0.0000000000E+00   0.0000000000E+00   0.0000000000E+00   0.0000000000E+00   0.0000000000E+00   0.0000000000E+00   0.0000000000E+00   0.0000000000E+00   0.0000000000E+00   0.0000000000E+00   0.0000000000E+00   0.0000000000E+00
   0.2000100000E+01   0.1000000000E+01   0.0000000000E+00   0.1000000000E-03   0.0000000000E+00   0.0000000000E+00   0.0000000000E+00   0.0000000000E+00   0.0000000000E+00   0.0000000000E+00   0.0000000000E+00   0.0000000000E+00   0.0000000000E+00   0.0000000000E+00   0.0000000000E+00   0.0000000000E+00
   0.2000100000E+01   0.0000000000E+00   0.1000000000E+01   0.1000000000E-03   0.0000000000E+00   0.0000000000E+00   0.0000000000E+00   0.0000000000E+00   0.0000000000E+00   0.0000000000E+00   0.0000000000E+00   0.0000000000E+00   0.0000000000E+00   0.0000000000E+00   0.0000000000E+00   0.0000000000E+00
   0.2000100000E+01   0.1000000000E+01   0.1000000000E+01   0.1000000000E-03   0.0000000000E+00   0.0000000000E+00   0.0000000000E+00   0.0000000000E+00   0.0000000000E+00   0.0000000000E+00   0.0000000000E+00   0.0000000000E+00   0.0000000000E+00   0.0000000000E+00   0.0000000000E+00   0.0000000000E+00
     1     2     3     4     5     6     7     8
     2     9    10     3     6    11    12     7
 VARIABLES = X,Y,Z,DU1,DU2,DU3,U1,U2,U3,S11,S22,S33,S12,S13,S23,Vf
 ZONE, T="0.2000D-01" F=FEPOINT, I=   12 J=    2 ET=BRICK
   0.0000000000E+00   0.0000000000E+00   0.0000000000E+00   0.0000000000E+00   0.0000000000E+00   0.0000000000E+00   0.0000000000E+00   0.0000000000E+00   0.0000000000E+00   0.0000000000E+00   0.0000000000E+00   0.0000000000E+00   0.0000000000E+00   0.0000000000E+00   0.0000000000E+00   0.0000000000E+00
   0.1000002222E+01   0.1094593658E-05   0.1094593658E-05   0.2222245708E-05   0.1094593658E-05   0.1094593658E-05   0.0000000000E+00   0.0000000000E+00   0.0000000000E+00   0.7407856067E-01   0.3648645525E-01   0.3648645525E-01  -0.1941048611E-18  -0.9507566601E-19   0.0000000000E+00   0.0000000000E+00
   0.1000002222E+01   0.9999989054E+00   0.1094593658E-05   0.2222245708E-05  -0.1094593658E-05   0.1094593658E-05   0.0000000000E+00   0.0000000000E+00   0.0000000000E+00   0.7407856066E-01   0.3648645525E-01   0.3648645525E-01  -0.1941048611E-18  -0.1917035160E-18   0.0000000000E+00   0.0000000000E+00
   0.0000000000E+00   0.1000000000E+01   0.0000000000E+00   0.0000000000E+00   0.0000000000E+00   0.0000000000E+00   0.0000000000E+00   0.0000000000E+00   0.0000000000E+00   0.0000000000E+00   0.0000000000E+00   0.0000000000E+00   0.0000000000E+00   0.0000000000E+00   0.0000000000E+00   0.0000000000E+00
   0.0000000000E+00   0.0000000000E+00   0.1000000000E+01   0.0000000000E+00   0.0000000000E+00   0.0000000000E+00   0.0000000000E+00   0.0000000000E+00   0.0000000000E+00   0.0000000000E+00   0.0000000000E+00   0.0000000000E+00   0.0000000000E+00   0.0000000000E+00   0.0000000000E+00   0.0000000000E+00
   0.1000002222E+01   0.1094593658E-05   0.9999989054E+00   0.2222245708E-05   0.1094593658E-05  -0.1094593658E-05   0.0000000000E+00   0.0000000000E+00   0.0000000000E+00   0.7407856066E-01   0.3648645525E-01   0.3648645525E-01  -0.2182383097E-18  -0.9507566601E-19   0.0000000000E+00   0.0000000000E+00
   0.1000002222E+01   0.9999989054E+00   0.9999989054E+00   0.2222245707E-05  -0.1094593658E-05  -0.1094593658E-05   0.0000000000E+00   0.0000000000E+00   0.0000000000E+00   0.7407856066E-01   0.3648645525E-01   0.3648645525E-01  -0.2182383096E-18  -0.1917035160E-18   0.0000000000E+00   0.0000000000E+00
   0.0000000000E+00   0.1000000000E+01   0.1000000000E+01   0.0000000000E+00   0.0000000000E+00   0.0000000000E+00   0.0000000000E+00   0.0000000000E+00   0.0000000000E+00   0.0000000000E+00   0.0000000000E+00   0.0000000000E+00   0.0000000000E+00   0.0000000000E+00   0.0000000000E+00   0.0000000000E+00
   0.2000200000E+01   0.2189187315E-05   0.2189187315E-05   0.1000000000E-03   0.2189187315E-05   0.2189187315E-05   0.1000000000E-03   0.0000000000E+00   0.0000000000E+00   0.1481571213E+00   0.7297291050E-01   0.7297291050E-01  -0.4364766193E-18  -0.3834070320E-18   0.0000000000E+00   0.0000000000E+00
   0.2000200000E+01   0.9999978108E+00   0.2189187315E-05   0.1000000000E-03  -0.2189187315E-05   0.2189187315E-05   0.1000000000E-03   0.0000000000E+00   0.0000000000E+00   0.1481571213E+00   0.7297291050E-01   0.7297291050E-01  -0.4364766193E-18  -0.6357441052E-18   0.0000000000E+00   0.0000000000E+00
   0.2000200000E+01   0.2189187315E-05   0.9999978108E+00   0.1000000000E-03   0.2189187315E-05  -0.2189187315E-05   0.1000000000E-03   0.0000000000E+00   0.0000000000E+00   0.1481571213E+00   0.7297291050E-01   0.7297291050E-01  -0.6499640588E-18  -0.3834070319E-18   0.0000000000E+00   0.0000000000E+00
   0.2000200000E+01   0.9999978108E+00   0.9999978108E+00   0.1000000000E-03  -0.2189187315E-05  -0.2189187315E-05   0.1000000000E-03   0.0000000000E+00   0.0000000000E+00   0.1481571213E+00   0.7297291050E-01   0.7297291050E-01  -0.6499640587E-18  -0.6357441052E-18   0.0000000000E+00   0.0000000000E+00
     1     2     3     4     5     6     7     8
     2     9    10     3     6    11    12     7
 VARIABLES = X,Y,Z,DU1,DU2,DU3,U1,U2,U3,S11,S22,S33,S12,S13,S23,Vf
 ZONE, T="0.3000D-01" F=FEPOINT, I=   12 J=    2 ET=BRICK
   0.0000000000E+00  -0.1710807829E-07  -0.1710807829E-07   0.0000000000E+00  -0.1710807829E-07  -0.1710807829E-07   0.0000000000E+00   0.0000000000E+00   0.0000000000E+00   0.1512092579E-02  -0.7074358122E-03  -0.7074358122E-03   0.1371670179E-03   0.1371670179E-03  -0.3541651849E-14   0.0000000000E+00
   0.1000008001E+01   0.3868173095E-05   0.3868173095E-05   0.5778649588E-05   0.2773579437E-05   0.2773579437E-05   0.2222245708E-05   0.1094593658E-05   0.1094593658E-05   0.1449548489E+00   0.6812822391E-01   0.6812822391E-01   0.1371638414E-03   0.1371638414E-03  -0.9374286752E-14   0.0000000000E+00
   0.1000008001E+01   0.9999961318E+00   0.3868173095E-05   0.5778649587E-05  -0.2773579437E-05   0.2773579437E-05   0.2222245708E-05  -0.1094593658E-05   0.1094593658E-05   0.1449548489E+00   0.6812822391E-01   0.6812822391E-01  -0.1371638414E-03   0.1371638414E-03  -0.1250851238E-14   0.0000000000E+00
   0.0000000000E+00   0.1000000017E+01  -0.1710807829E-07   0.0000000000E+00   0.1710807829E-07  -0.1710807829E-07   0.0000000000E+00   0.0000000000E+00   0.0000000000E+00   0.1512092579E-02  -0.7074358121E-03  -0.7074358121E-03  -0.1371670179E-03   0.1371670179E-03  -0.2134444796E-19   0.0000000000E+00
   0.0000000000E+00  -0.1710807829E-07   0.1000000017E+01   0.0000000000E+00  -0.1710807829E-07   0.1710807829E-07   0.0000000000E+00   0.0000000000E+00   0.0000000000E+00   0.1512092579E-02  -0.7074358121E-03  -0.7074358121E-03   0.1371670179E-03  -0.1371670179E-03  -0.1363030708E-19   0.0000000000E+00
   0.1000008001E+01   0.3868173095E-05   0.9999961318E+00   0.5778649587E-05   0.2773579437E-05  -0.2773579437E-05   0.2222245708E-05   0.1094593658E-05  -0.1094593658E-05   0.1449548489E+00   0.6812822391E-01   0.6812822391E-01   0.1371638414E-03  -0.1371638414E-03  -0.1250886966E-14   0.0000000000E+00
   0.1000008001E+01   0.9999961318E+00   0.9999961318E+00   0.5778649587E-05  -0.2773579437E-05  -0.2773579437E-05   0.2222245707E-05  -0.1094593658E-05  -0.1094593658E-05   0.1449548489E+00   0.6812822391E-01   0.6812822391E-01  -0.1371638414E-03  -0.1371638414E-03   0.1187556485E-13   0.0000000000E+00
   0.0000000000E+00   0.1000000017E+01   0.1000000017E+01   0.0000000000E+00   0.1710807829E-07   0.1710807829E-07   0.0000000000E+00   0.0000000000E+00   0.0000000000E+00   0.1512092579E-02  -0.7074358121E-03  -0.7074358121E-03  -0.1371670179E-03  -0.1371670179E-03   0.3541616874E-14   0.0000000000E+00
   0.2000300000E+01   0.7753453257E-05   0.7753453257E-05   0.1000000000E-03   0.5564265941E-05   0.5564265941E-05   0.2000000000E-03   0.2189187315E-05   0.2189187315E-05   0.2883976060E+00   0.1369638832E+00   0.1369638832E+00   0.1371606649E-03   0.1371606649E-03  -0.1520701637E-13   0.0000000000E+00
   0.2000300000E+01   0.9999922465E+00   0.7753453256E-05   0.1000000000E-03  -0.5564265941E-05   0.5564265941E-05   0.2000000000E-03  -0.2189187315E-05   0.2189187315E-05   0.2883976060E+00   0.1369638832E+00   0.1369638832E+00  -0.1371606649E-03   0.1371606649E-03  -0.2501706584E-14   0.0000000000E+00
   0.2000300000E+01   0.7753453256E-05   0.9999922465E+00   0.1000000000E-03   0.5564265941E-05  -0.5564265941E-05   0.2000000000E-03   0.2189187315E-05  -0.2189187315E-05   0.2883976060E+00   0.1369638832E+00   0.1369638832E+00   0.1371606649E-03  -0.1371606649E-03  -0.2501875590E-14   0.0000000000E+00
   0.2000300000E+01   0.9999922465E+00   0.9999922465E+00   0.1000000000E-03  -0.5564265941E-05  -0.5564265941E-05   0.2000000000E-03  -0.2189187315E-05  -0.2189187315E-05   0.2883976060E+00   0.1369638832E+00   0.1369638832E+00  -0.1371606649E-03  -0.1371606649E-03   0.2020947410E-13   0.0000000000E+00
     1     2     3     4     5     6     7     8
     2     9    10     3     6    11    12     7
 VARIABLES = X,Y,Z,DU1,DU2,DU3,U1,U2,U3,S11,S22,S33,S12,S13,S23,Vf
 ZONE, T="0.4000D-01" F=FEPOINT, I=   12 J=    2 ET=BRICK
   0.0000000000E+00  -0.8449610628E-07  -0.8449610628E-07   0.0000000000E+00  -0.6738802799E-07  -0.6738802799E-07   0.0000000000E+00  -0.1710807829E-07  -0.1710807829E-07   0.5584514283E-02  -0.2352957941E-02  -0.2352957941E-02   0.4868770355E-03   0.4868770355E-03   0.1275845184E-09   0.0000000000E+00
   0.1000018486E+01   0.8730720793E-05   0.8730720793E-05   0.1048544020E-04   0.4862547698E-05   0.4862547698E-05   0.8000895295E-05   0.3868173095E-05   0.3868173095E-05   0.2109237040E+00   0.9234095840E-01   0.9234095840E-01   0.4868677330E-03   0.4868677330E-03   0.1275589670E-09   0.0000000000E+00
   0.1000018486E+01   0.9999912693E+00   0.8730720793E-05   0.1048544020E-04  -0.4862547698E-05   0.4862547698E-05   0.8000895295E-05  -0.3868173095E-05   0.3868173095E-05   0.2109237040E+00   0.9234095839E-01   0.9234095839E-01  -0.4868677331E-03   0.4868677330E-03  -0.1275963283E-09   0.0000000000E+00
   0.0000000000E+00   0.1000000084E+01  -0.8449610628E-07   0.0000000000E+00   0.6738802799E-07  -0.6738802799E-07   0.0000000000E+00   0.1710807829E-07  -0.1710807829E-07   0.5584514283E-02  -0.2352957941E-02  -0.2352957941E-02  -0.4868770355E-03   0.4868770354E-03  -0.1275967927E-09   0.0000000000E+00
   0.0000000000E+00  -0.8449610628E-07   0.1000000084E+01   0.0000000000E+00  -0.6738802799E-07   0.6738802799E-07   0.0000000000E+00  -0.1710807829E-07   0.1710807829E-07   0.5584514283E-02  -0.2352957941E-02  -0.2352957941E-02   0.4868770354E-03  -0.4868770355E-03  -0.1275967927E-09   0.0000000000E+00
   0.1000018486E+01   0.8730720793E-05   0.9999912693E+00   0.1048544020E-04   0.4862547698E-05  -0.4862547698E-05   0.8000895295E-05   0.3868173095E-05  -0.3868173095E-05   0.2109237040E+00   0.9234095839E-01   0.9234095839E-01   0.4868677330E-03  -0.4868677331E-03  -0.1275963284E-09   0.0000000000E+00
   0.1000018486E+01   0.9999912693E+00   0.9999912693E+00   0.1048544020E-04  -0.4862547698E-05  -0.4862547698E-05   0.8000895295E-05  -0.3868173095E-05  -0.3868173095E-05   0.2109237040E+00   0.9234095839E-01   0.9234095839E-01  -0.4868677331E-03  -0.4868677331E-03   0.1276336892E-09   0.0000000000E+00
   0.0000000000E+00   0.1000000084E+01   0.1000000084E+01   0.0000000000E+00   0.6738802798E-07   0.6738802798E-07   0.0000000000E+00   0.1710807829E-07   0.1710807829E-07   0.5584514283E-02  -0.2352957941E-02  -0.2352957941E-02  -0.4868770354E-03  -0.4868770354E-03   0.1276090671E-09   0.0000000000E+00
   0.2000400000E+01   0.1754592719E-04   0.1754592719E-04   0.1000000000E-03   0.9792473932E-05   0.9792473932E-05   0.3000000000E-03   0.7753453257E-05   0.7753453257E-05   0.4162629035E+00   0.1870348699E+00   0.1870348699E+00   0.4868584305E-03   0.4868584305E-03   0.1275334147E-09   0.0000000000E+00
   0.2000400000E+01   0.9999824541E+00   0.1754592719E-04   0.1000000000E-03  -0.9792473932E-05   0.9792473932E-05   0.3000000000E-03  -0.7753453256E-05   0.7753453256E-05   0.4162629035E+00   0.1870348698E+00   0.1870348698E+00  -0.4868584305E-03   0.4868584305E-03  -0.1275958643E-09   0.0000000000E+00
   0.2000400000E+01   0.1754592719E-04   0.9999824541E+00   0.1000000000E-03   0.9792473932E-05  -0.9792473932E-05   0.3000000000E-03   0.7753453256E-05  -0.7753453256E-05   0.4162629035E+00   0.1870348698E+00   0.1870348698E+00   0.4868584305E-03  -0.4868584305E-03  -0.1275958646E-09   0.0000000000E+00
   0.2000400000E+01   0.9999824541E+00   0.9999824541E+00   0.1000000000E-03  -0.9792473932E-05  -0.9792473932E-05   0.3000000000E-03  -0.7753453256E-05  -0.7753453256E-05   0.4162629035E+00   0.1870348698E+00   0.1870348698E+00  -0.4868584305E-03  -0.4868584305E-03   0.1276583112E-09   0.0000000000E+00
     1     2     3     4     5     6     7     8
     2     9    10     3     6    11    12     7
 VARIABLES = X,Y,Z,DU1,DU2,DU3,U1,U2,U3,S11,S22,S33,S12,S13,S23,Vf
 ZONE, T="0.5000D-01" F=FEPOINT, I=   12 J=    2 ET=BRICK
   0.0000000000E+00  -0.2468863703E-06  -0.2468863703E-06   0.0000000000E+00  -0.1623902640E-06  -0.1623902640E-06   0.0000000000E+00  -0.8449610628E-07  -0.8449610628E-07   0.1329757829E-01  -0.4893397380E-02  -0.4893397380E-02   0.1104664294E-02   0.1104664294E-02   0.9276585813E-09   0.0000000000E+00
   0.1000034603E+01   0.1588927167E-04   0.1588927167E-04   0.1611695509E-04   0.7158550875E-05   0.7158550875E-05   0.1848633550E-04   0.8730720793E-05   0.8730720793E-05   0.2707892551E+00   0.1073117053E+00   0.1073117053E+00   0.1104650613E-02   0.1104650613E-02   0.9275373546E-09   0.0000000000E+00
   0.1000034603E+01   0.9999841107E+00   0.1588927167E-04   0.1611695509E-04  -0.7158550875E-05   0.7158550875E-05   0.1848633550E-04  -0.8730720793E-05   0.8730720793E-05   0.2707892551E+00   0.1073117053E+00   0.1073117053E+00  -0.1104650613E-02   0.1104650613E-02  -0.9276211364E-09   0.0000000000E+00
   0.0000000000E+00   0.1000000247E+01  -0.2468863703E-06   0.0000000000E+00   0.1623902640E-06  -0.1623902640E-06   0.0000000000E+00   0.8449610628E-07  -0.8449610628E-07   0.1329757829E-01  -0.4893397380E-02  -0.4893397380E-02  -0.1104664294E-02   0.1104664294E-02  -0.9276856053E-09   0.0000000000E+00
   0.0000000000E+00  -0.2468863703E-06   0.1000000247E+01   0.0000000000E+00  -0.1623902640E-06   0.1623902640E-06   0.0000000000E+00  -0.8449610628E-07   0.8449610628E-07   0.1329757829E-01  -0.4893397380E-02  -0.4893397380E-02   0.1104664294E-02  -0.1104664294E-02  -0.9276856054E-09   0.0000000000E+00
   0.1000034603E+01   0.1588927167E-04   0.9999841107E+00   0.1611695509E-04   0.7158550875E-05  -0.7158550875E-05   0.1848633550E-04   0.8730720793E-05  -0.8730720793E-05   0.2707892551E+00   0.1073117053E+00   0.1073117053E+00   0.1104650613E-02  -0.1104650613E-02  -0.9276211367E-09   0.0000000000E+00
   0.1000034603E+01   0.9999841107E+00   0.9999841107E+00   0.1611695509E-04  -0.7158550874E-05  -0.7158550874E-05   0.1848633550E-04  -0.8730720793E-05  -0.8730720793E-05   0.2707892551E+00   0.1073117053E+00   0.1073117053E+00  -0.1104650613E-02  -0.1104650613E-02   0.9277049177E-09   0.0000000000E+00
   0.0000000000E+00   0.1000000247E+01   0.1000000247E+01   0.0000000000E+00   0.1623902640E-06   0.1623902640E-06   0.0000000000E+00   0.8449610627E-07   0.8449610627E-07   0.1329757829E-01  -0.4893397379E-02  -0.4893397379E-02  -0.1104664294E-02  -0.1104664294E-02   0.9277126296E-09   0.0000000000E+00
   0.2000500000E+01   0.3202538183E-04   0.3202538183E-04   0.1000000000E-03   0.1447945464E-04   0.1447945464E-04   0.4000000000E-03   0.1754592719E-04   0.1754592719E-04   0.5282809803E+00   0.2195167839E+00   0.2195167839E+00   0.1104636931E-02   0.1104636931E-02   0.9274161242E-09   0.0000000000E+00
   0.2000500000E+01   0.9999679746E+00   0.3202538182E-04   0.1000000000E-03  -0.1447945464E-04   0.1447945464E-04   0.4000000000E-03  -0.1754592719E-04   0.1754592719E-04   0.5282809803E+00   0.2195167838E+00   0.2195167838E+00  -0.1104636931E-02   0.1104636931E-02  -0.9275566668E-09   0.0000000000E+00
   0.2000500000E+01   0.3202538182E-04   0.9999679746E+00   0.1000000000E-03   0.1447945464E-04  -0.1447945464E-04   0.4000000000E-03   0.1754592719E-04  -0.1754592719E-04   0.5282809803E+00   0.2195167838E+00   0.2195167838E+00   0.1104636931E-02  -0.1104636931E-02  -0.9275566675E-09   0.0000000000E+00
   0.2000500000E+01   0.9999679746E+00   0.9999679746E+00   0.1000000000E-03  -0.1447945464E-04  -0.1447945464E-04   0.4000000000E-03  -0.1754592719E-04  -0.1754592719E-04   0.5282809803E+00   0.2195167838E+00   0.2195167838E+00  -0.1104636931E-02  -0.1104636931E-02   0.9276972054E-09   0.0000000000E+00
     1     2     3     4     5     6     7     8
     2     9    10     3     6    11    12     7
 VARIABLES = X,Y,Z,DU1,DU2,DU3,U1,U2,U3,S11,S22,S33,S12,S13,S23,Vf
 ZONE, T="0.6000D-01" F=FEPOINT, I=   12 J=    2 ET=BRICK
   0.0000000000E+00  -0.5504901001E-06  -0.5504901001E-06   0.0000000000E+00  -0.3036037298E-06  -0.3036037298E-06   0.0000000000E+00  -0.2468863703E-06  -0.2468863703E-06   0.2574213097E-01  -0.7992001625E-02  -0.7992001625E-02   0.2022080399E-02   0.2022080399E-02   0.3623341680E-08   0.0000000000E+00
   0.1000057022E+01   0.2533857746E-04   0.2533857746E-04   0.2241902584E-04   0.9449305795E-05   0.9449305795E-05   0.3460329059E-04   0.1588927167E-04   0.1588927167E-04   0.3239480538E+00   0.1121250125E+00   0.1121250125E+00   0.2022074847E-02   0.2022074847E-02   0.3622859636E-08   0.0000000000E+00
   0.1000057022E+01   0.9999746614E+00   0.2533857746E-04   0.2241902584E-04  -0.9449305795E-05   0.9449305795E-05   0.3460329059E-04  -0.1588927167E-04   0.1588927167E-04   0.3239480537E+00   0.1121250125E+00   0.1121250125E+00  -0.2022074847E-02   0.2022074847E-02  -0.3623010875E-08   0.0000000000E+00
   0.0000000000E+00   0.1000000550E+01  -0.5504901001E-06   0.0000000000E+00   0.3036037298E-06  -0.3036037298E-06   0.0000000000E+00   0.2468863703E-06  -0.2468863703E-06   0.2574213097E-01  -0.7992001625E-02  -0.7992001625E-02  -0.2022080399E-02   0.2022080399E-02  -0.3623389388E-08   0.0000000000E+00
   0.0000000000E+00  -0.5504901001E-06   0.1000000550E+01   0.0000000000E+00  -0.3036037298E-06   0.3036037298E-06   0.0000000000E+00  -0.2468863703E-06   0.2468863703E-06   0.2574213097E-01  -0.7992001625E-02  -0.7992001625E-02   0.2022080399E-02  -0.2022080399E-02  -0.3623389388E-08   0.0000000000E+00
   0.1000057022E+01   0.2533857746E-04   0.9999746614E+00   0.2241902584E-04   0.9449305795E-05  -0.9449305795E-05   0.3460329059E-04   0.1588927167E-04  -0.1588927167E-04   0.3239480537E+00   0.1121250125E+00   0.1121250125E+00   0.2022074847E-02  -0.2022074847E-02  -0.3623010875E-08   0.0000000000E+00
   0.1000057022E+01   0.9999746614E+00   0.9999746614E+00   0.2241902584E-04  -0.9449305795E-05  -0.9449305795E-05   0.3460329058E-04  -0.1588927167E-04  -0.1588927167E-04   0.3239480537E+00   0.1121250125E+00   0.1121250125E+00  -0.2022074847E-02  -0.2022074847E-02   0.3623162113E-08   0.0000000000E+00
   0.0000000000E+00   0.1000000550E+01   0.1000000550E+01   0.0000000000E+00   0.3036037298E-06   0.3036037298E-06   0.0000000000E+00   0.2468863703E-06   0.2468863703E-06   0.2574213096E-01  -0.7992001624E-02  -0.7992001624E-02  -0.2022080399E-02  -0.2022080399E-02   0.3623437097E-08   0.0000000000E+00
   0.2000600000E+01   0.5122749702E-04   0.5122749702E-04   0.1000000000E-03   0.1920211519E-04   0.1920211519E-04   0.5000000000E-03   0.3202538183E-04   0.3202538183E-04   0.6221541346E+00   0.2322419475E+00   0.2322419475E+00   0.2022069293E-02   0.2022069293E-02   0.3622377572E-08   0.0000000000E+00
   0.2000600000E+01   0.9999487725E+00   0.5122749701E-04   0.1000000000E-03  -0.1920211519E-04   0.1920211519E-04   0.5000000000E-03  -0.3202538182E-04   0.3202538182E-04   0.6221541345E+00   0.2322419475E+00   0.2322419475E+00  -0.2022069293E-02   0.2022069293E-02  -0.3622632348E-08   0.0000000000E+00
   0.2000600000E+01   0.5122749701E-04   0.9999487725E+00   0.1000000000E-03   0.1920211519E-04  -0.1920211519E-04   0.5000000000E-03   0.3202538182E-04  -0.3202538182E-04   0.6221541345E+00   0.2322419475E+00   0.2322419475E+00   0.2022069293E-02  -0.2022069293E-02  -0.3622632350E-08   0.0000000000E+00
   0.2000600000E+01   0.9999487725E+00   0.9999487725E+00   0.1000000000E-03  -0.1920211519E-04  -0.1920211519E-04   0.5000000000E-03  -0.3202538182E-04  -0.3202538182E-04   0.6221541345E+00   0.2322419475E+00   0.2322419475E+00  -0.2022069293E-02  -0.2022069293E-02   0.3622887118E-08   0.0000000000E+00
     1     2     3     4     5     6     7     8
     2     9    10     3     6    11    12     7
 VARIABLES = X,Y,Z,DU1,DU2,DU3,U1,U2,U3,S11,S22,S33,S12,S13,S23,Vf
 ZONE, T="0.7000D-01" F=FEPOINT, I=   12 J=    2 ET=BRICK
   0.0000000000E+00  -0.1028348009E-05  -0.1028348009E-05   0.0000000000E+00  -0.4778579091E-06  -0.4778579091E-06   0.0000000000E+00  -0.5504901001E-06  -0.5504901001E-06   0.4397945109E-01  -0.1104248295E-01  -0.1104248295E-01   0.3244263836E-02   0.3244263836E-02   0.1019690964E-07   0.0000000000E+00
   0.1000086146E+01   0.3687094682E-04   0.3687094682E-04   0.2912336534E-04   0.1153236936E-04   0.1153236936E-04   0.5702231643E-04   0.2533857746E-04   0.2533857746E-04   0.3704161870E+00   0.1068041576E+00   0.1068041576E+00   0.3244295627E-02   0.3244295627E-02   0.1019546237E-07   0.0000000000E+00
   0.1000086146E+01   0.9999631291E+00   0.3687094682E-04   0.2912336534E-04  -0.1153236936E-04   0.1153236936E-04   0.5702231642E-04  -0.2533857746E-04   0.2533857746E-04   0.3704161870E+00   0.1068041576E+00   0.1068041576E+00  -0.3244295628E-02   0.3244295627E-02  -0.1019570114E-07   0.0000000000E+00
   0.0000000000E+00   0.1000001028E+01  -0.1028348009E-05   0.0000000000E+00   0.4778579090E-06  -0.4778579090E-06   0.0000000000E+00   0.5504901001E-06  -0.5504901001E-06   0.4397945109E-01  -0.1104248295E-01  -0.1104248295E-01  -0.3244263836E-02   0.3244263836E-02  -0.1019698301E-07   0.0000000000E+00
   0.0000000000E+00  -0.1028348009E-05   0.1000001028E+01   0.0000000000E+00  -0.4778579090E-06   0.4778579090E-06   0.0000000000E+00  -0.5504901001E-06   0.5504901001E-06   0.4397945109E-01  -0.1104248295E-01  -0.1104248295E-01   0.3244263836E-02  -0.3244263836E-02  -0.1019698301E-07   0.0000000000E+00
   0.1000086146E+01   0.3687094682E-04   0.9999631291E+00   0.2912336534E-04   0.1153236936E-04  -0.1153236936E-04   0.5702231642E-04   0.2533857746E-04  -0.2533857746E-04   0.3704161870E+00   0.1068041576E+00   0.1068041576E+00   0.3244295627E-02  -0.3244295628E-02  -0.1019570114E-07   0.0000000000E+00
   0.1000086146E+01   0.9999631291E+00   0.9999631291E+00   0.2912336534E-04  -0.1153236936E-04  -0.1153236936E-04   0.5702231642E-04  -0.2533857746E-04  -0.2533857746E-04   0.3704161870E+00   0.1068041576E+00   0.1068041576E+00  -0.3244295628E-02  -0.3244295628E-02   0.1019593991E-07   0.0000000000E+00
   0.0000000000E+00   0.1000001028E+01   0.1000001028E+01   0.0000000000E+00   0.4778579090E-06   0.4778579090E-06   0.0000000000E+00   0.5504901001E-06   0.5504901001E-06   0.4397945108E-01  -0.1104248295E-01  -0.1104248295E-01  -0.3244263836E-02  -0.3244263836E-02   0.1019705638E-07   0.0000000000E+00
   0.2000700000E+01   0.7476988055E-04   0.7476988055E-04   0.1000000000E-03   0.2354238353E-04   0.2354238353E-04   0.6000000000E-03   0.5122749702E-04   0.5122749702E-04   0.6968533214E+00   0.2246505989E+00   0.2246505989E+00   0.3244327413E-02   0.3244327413E-02   0.1019401501E-07   0.0000000000E+00
   0.2000700000E+01   0.9999252301E+00   0.7476988054E-04   0.1000000000E-03  -0.2354238353E-04   0.2354238353E-04   0.6000000000E-03  -0.5122749701E-04   0.5122749701E-04   0.6968533214E+00   0.2246505989E+00   0.2246505989E+00  -0.3244327413E-02   0.3244327413E-02  -0.1019441919E-07   0.0000000000E+00
   0.2000700000E+01   0.7476988054E-04   0.9999252301E+00   0.1000000000E-03   0.2354238353E-04  -0.2354238353E-04   0.6000000000E-03   0.5122749701E-04  -0.5122749701E-04   0.6968533214E+00   0.2246505989E+00   0.2246505989E+00   0.3244327413E-02  -0.3244327413E-02  -0.1019441919E-07   0.0000000000E+00
   0.2000700000E+01   0.9999252301E+00   0.9999252301E+00   0.1000000000E-03  -0.2354238353E-04  -0.2354238353E-04   0.6000000000E-03  -0.5122749701E-04  -0.5122749701E-04   0.6968533214E+00   0.2246505989E+00   0.2246505989E+00  -0.3244327413E-02  -0.3244327413E-02   0.1019482337E-07   0.0000000000E+00
     1     2     3     4     5     6     7     8
     2     9    10     3     6    11    12     7
 VARIABLES = X,Y,Z,DU1,DU2,DU3,U1,U2,U3,S11,S22,S33,S12,S13,S23,Vf
 ZONE, T="0.8000D-01" F=FEPOINT, I=   12 J=    2 ET=BRICK
   0.0000000000E+00  -0.1682772076E-05  -0.1682772076E-05   0.0000000000E+00  -0.6544240669E-06  -0.6544240669E-06   0.0000000000E+00  -0.1028348009E-05  -0.1028348009E-05   0.6898536170E-01  -0.1323390448E-01  -0.1323390448E-01   0.4749335378E-02   0.4749335378E-02   0.2318452952E-07   0.0000000000E+00
   0.1000122108E+01   0.5010354517E-04   0.5010354517E-04   0.3596207974E-04   0.1323259835E-04   0.1323259835E-04   0.8614568177E-04   0.3687094682E-04   0.3687094682E-04   0.4108004768E+00   0.9226763983E-01   0.9226763983E-01   0.4749453947E-02   0.4749453947E-02   0.2318111650E-07   0.0000000000E+00
   0.1000122108E+01   0.9999498965E+00   0.5010354516E-04   0.3596207974E-04  -0.1323259835E-04   0.1323259835E-04   0.8614568177E-04  -0.3687094682E-04   0.3687094682E-04   0.4108004768E+00   0.9226763983E-01   0.9226763983E-01  -0.4749453948E-02   0.4749453946E-02  -0.2318145971E-07   0.0000000000E+00
   0.0000000000E+00   0.1000001683E+01  -0.1682772076E-05   0.0000000000E+00   0.6544240669E-06  -0.6544240669E-06   0.0000000000E+00   0.1028348009E-05  -0.1028348009E-05   0.6898536170E-01  -0.1323390448E-01  -0.1323390448E-01  -0.4749335378E-02   0.4749335378E-02  -0.2318463183E-07   0.0000000000E+00
   0.0000000000E+00  -0.1682772076E-05   0.1000001683E+01   0.0000000000E+00  -0.6544240669E-06   0.6544240669E-06   0.0000000000E+00  -0.1028348009E-05   0.1028348009E-05   0.6898536170E-01  -0.1323390448E-01  -0.1323390448E-01   0.4749335378E-02  -0.4749335378E-02  -0.2318463183E-07   0.0000000000E+00
   0.1000122108E+01   0.5010354516E-04   0.9999498965E+00   0.3596207974E-04   0.1323259835E-04  -0.1323259835E-04   0.8614568177E-04   0.3687094682E-04  -0.3687094682E-04   0.4108004768E+00   0.9226763983E-01   0.9226763983E-01   0.4749453946E-02  -0.4749453948E-02  -0.2318145971E-07   0.0000000000E+00
   0.1000122108E+01   0.9999498965E+00   0.9999498965E+00   0.3596207974E-04  -0.1323259834E-04  -0.1323259834E-04   0.8614568176E-04  -0.3687094682E-04  -0.3687094682E-04   0.4108004768E+00   0.9226763982E-01   0.9226763982E-01  -0.4749453947E-02  -0.4749453947E-02   0.2318180293E-07   0.0000000000E+00
   0.0000000000E+00   0.1000001683E+01   0.1000001683E+01   0.0000000000E+00   0.6544240668E-06   0.6544240668E-06   0.0000000000E+00   0.1028348009E-05   0.1028348009E-05   0.6898536169E-01  -0.1323390448E-01  -0.1323390448E-01  -0.4749335378E-02  -0.4749335378E-02   0.2318473414E-07   0.0000000000E+00