 VARIABLES = X,Y,Z,DU1,DU2,DU3,U1,U2,U3,S11,S22,S33,S12,S13,S23
 ZONE, T="0.1000D+01" F=FEPOINT, I=   12 J=    2 ET=BRICK
   0.0000000000E+00   0.0000000000E+00   0.0000000000E+00   0.0000000000E+00   0.0000000000E+00   0.0000000000E+00   0.0000000000E+00   0.0000000000E+00   0.0000000000E+00   0.5000000693E+01   0.5848080827E-06   0.6211899773E-06  -0.2235905140E-14   0.3889533951E-06   0.3441895305E-06
   0.1050000003E+01   0.0000000000E+00   0.1025413934E-07   0.5000000334E-01   0.0000000000E+00   0.1025413934E-07   0.0000000000E+00   0.0000000000E+00   0.0000000000E+00   0.5000000322E+01   0.2715646817E-06  -0.1193908053E-06  -0.2519270362E-07   0.2043363986E-07  -0.9907185100E-08
   0.1050000003E+01   0.9750000033E+00   0.9956923579E-08   0.5000000258E-01  -0.2499999670E-01   0.9956923579E-08   0.0000000000E+00   0.0000000000E+00   0.0000000000E+00   0.5000000173E+01   0.3023380975E-06   0.3154309955E-06  -0.3929598350E-07  -0.1504415504E-06  -0.2053736761E-06
   0.0000000000E+00   0.9750000039E+00   0.1032568697E-07   0.0000000000E+00  -0.2499999606E-01   0.1032568697E-07   0.0000000000E+00   0.0000000000E+00   0.0000000000E+00   0.4999999672E+01  -0.4602304804E-06  -0.1041392171E-05  -0.2461730195E-07  -0.4017643900E-07   0.6644727628E-07
   0.0000000000E+00   0.0000000000E+00   0.9750000044E+00   0.0000000000E+00   0.0000000000E+00  -0.2499999562E-01   0.0000000000E+00   0.0000000000E+00   0.0000000000E+00   0.4999999746E+01  -0.1674709842E-06   0.4479219344E-06   0.4322843814E-14   0.7213039542E-07   0.9822003955E-07
   0.1049999997E+01   0.0000000000E+00   0.9750000071E+00   0.4999999653E-01   0.0000000000E+00  -0.2499999294E-01   0.0000000000E+00   0.0000000000E+00   0.0000000000E+00   0.5000000396E+01   0.2297236624E-07  -0.1729671486E-07   0.7962544617E-08  -0.1035180259E-06   0.1873232445E-06
   0.1049999997E+01   0.9749999974E+00   0.9750000127E+00   0.4999999677E-01  -0.2500000256E-01  -0.2499998732E-01   0.0000000000E+00   0.0000000000E+00   0.0000000000E+00   0.5000000269E+01   0.7459906939E-07   0.4383187384E-06   0.2182235082E-07  -0.5246194656E-07  -0.8143246586E-08
   0.0000000000E+00   0.9749999956E+00   0.9750000073E+00   0.0000000000E+00  -0.2500000440E-01  -0.2499999267E-01   0.0000000000E+00   0.0000000000E+00   0.0000000000E+00   0.5000000216E+01   0.1243300652E-06   0.2439042157E-06   0.8481480057E-07   0.1968347792E-06  -0.1795222140E-06
   0.2100000000E+01   0.0000000000E+00   0.1485042306E-07   0.1000000000E+00   0.0000000000E+00   0.1485042306E-07   0.0000000000E+00   0.0000000000E+00   0.0000000000E+00   0.4999999488E+01   0.1350486528E-06  -0.3495650208E-06  -0.1107181174E-14   0.1060606562E-06  -0.6387136859E-07
   0.2100000000E+01   0.9750000031E+00   0.1293428211E-07   0.1000000000E+00  -0.2499999691E-01   0.1293428211E-07   0.0000000000E+00   0.0000000000E+00   0.0000000000E+00   0.5000000761E+01   0.1074666189E-05   0.1067894814E-05  -0.3589262088E-08   0.1271296210E-06  -0.2856874456E-06
   0.2100000000E+01   0.0000000000E+00   0.9750000118E+00   0.1000000000E+00   0.0000000000E+00  -0.2499998821E-01   0.0000000000E+00   0.0000000000E+00   0.0000000000E+00   0.5000000535E+01  -0.1658208966E-07   0.5096847460E-07  -0.1954382492E-14   0.1749803263E-06   0.1340217088E-06
   0.2100000000E+01   0.9749999964E+00   0.9750000158E+00   0.1000000000E+00  -0.2500000356E-01  -0.2499998419E-01   0.0000000000E+00   0.0000000000E+00   0.0000000000E+00   0.5000000085E+01  -0.6450639605E-06  -0.2213639565E-06  -0.5709518641E-07   0.8607760656E-07  -0.8779436752E-07
     1     2     3     4     5     6     7     8
     2     9    10     3     6    11    12     7
 VARIABLES = X,Y,Z,DU1,DU2,DU3,U1,U2,U3,S11,S22,S33,S12,S13,S23
 ZONE, T="0.2000D+01" F=FEPOINT, I=   12 J=    2 ET=BRICK
   0.0000000000E+00   0.0000000000E+00   0.0000000000E+00   0.0000000000E+00   0.0000000000E+00   0.0000000000E+00   0.0000000000E+00   0.0000000000E+00   0.0000000000E+00   0.1000000088E+02   0.2677341655E-06   0.2375780992E-06   0.1958953688E-14  -0.5142646019E-07  -0.2693494866E-07
   0.1100000000E+01   0.0000000000E+00  -0.1131422461E-08   0.4999999633E-01   0.0000000000E+00  -0.1138556180E-07   0.5000000334E-01   0.0000000000E+00   0.1025413934E-07   0.1000000010E+02   0.2138014010E-06   0.1698955740E-06   0.2941009034E-08   0.2174299443E-08   0.2392052506E-07
   0.1100000000E+01   0.9500000007E+00  -0.4138065704E-09   0.4999999717E-01  -0.2500000263E-01  -0.1037073015E-07   0.5000000258E-01  -0.2499999670E-01   0.9956923579E-08   0.1000000049E+02   0.5947302736E-07   0.1593293420E-07   0.1673889894E-08   0.1569940372E-07   0.1086345253E-07
   0.0000000000E+00   0.9500000000E+00  -0.8080486109E-09   0.0000000000E+00  -0.2500000398E-01  -0.1113373558E-07   0.0000000000E+00  -0.2499999606E-01   0.1032568697E-07   0.9999999051E+01  -0.8053539777E-06  -0.7881282492E-06   0.3621284221E-07   0.2232039961E-07  -0.2473003658E-07
   0.0000000000E+00   0.0000000000E+00   0.9499999990E+00   0.0000000000E+00   0.0000000000E+00  -0.2500000535E-01   0.0000000000E+00   0.0000000000E+00  -0.2499999562E-01   0.9999999995E+01  -0.3876213940E-06  -0.4576086434E-06   0.9904431469E-15   0.2985288923E-07   0.3022415751E-07
   0.1100000000E+01   0.0000000000E+00   0.9499999996E+00   0.5000000351E-01   0.0000000000E+00  -0.2500000749E-01   0.4999999653E-01   0.0000000000E+00  -0.2499999294E-01   0.1000000018E+02  -0.1720882025E-06  -0.1556746188E-06   0.1139341056E-07   0.6812247020E-08  -0.1461883764E-07
   0.1100000000E+01   0.9500000003E+00   0.9499999991E+00   0.5000000362E-01  -0.2499999716E-01  -0.2500001355E-01   0.4999999677E-01  -0.2500000256E-01  -0.2499998732E-01   0.1000000025E+02   0.4679914418E-07  -0.1991229121E-08   0.9885728184E-08   0.8693815469E-08  -0.2767591072E-07
   0.0000000000E+00   0.9500000000E+00   0.9499999999E+00   0.0000000000E+00  -0.2499999558E-01  -0.2500000739E-01   0.0000000000E+00  -0.2500000440E-01  -0.2499999267E-01   0.1000000048E+02  -0.1035013840E-06  -0.1017592495E-06   0.1344014477E-07  -0.3412618348E-07   0.3242906986E-07
   0.2200000000E+01   0.0000000000E+00  -0.6173585568E-09   0.1000000000E+00   0.0000000000E+00  -0.1546778162E-07   0.1000000000E+00   0.0000000000E+00   0.1485042306E-07   0.9999999434E+01  -0.1087502084E-05  -0.8627040215E-06  -0.1059547247E-14   0.3084784316E-07  -0.1678954245E-07
   0.2200000000E+01   0.9499999999E+00  -0.1121044939E-08   0.1000000000E+00  -0.2500000321E-01  -0.1405532705E-07   0.1000000000E+00  -0.2499999691E-01   0.1293428211E-07   0.1000000049E+02   0.5780766921E-06   0.4914984841E-06  -0.3874708049E-07  -0.3275360877E-07  -0.1506575568E-07
   0.2200000000E+01   0.0000000000E+00   0.9499999987E+00   0.1000000000E+00   0.0000000000E+00  -0.2500001310E-01   0.1000000000E+00   0.0000000000E+00  -0.2499998821E-01   0.1000000011E+02   0.1545591727E-06   0.3115302554E-07  -0.1682105480E-15  -0.4115560729E-07   0.1708248791E-07
   0.2200000000E+01   0.9499999999E+00   0.9499999992E+00   0.1000000000E+00  -0.2499999650E-01  -0.2500001661E-01   0.1000000000E+00  -0.2500000356E-01  -0.2499998419E-01   0.9999999484E+01  -0.6304774601E-06  -0.6010148926E-06  -0.1645550945E-07   0.9681790315E-08   0.1880627439E-07
     1     2     3     4     5     6     7     8
     2     9    10     3     6    11    12     7
 VARIABLES = X,Y,Z,DU1,DU2,DU3,U1,U2,U3,S11,S22,S33,S12,S13,S23
 ZONE, T="0.3000D+01" F=FEPOINT, I=   12 J=    2 ET=BRICK
   0.0000000000E+00   0.0000000000E+00   0.0000000000E+00   0.0000000000E+00   0.0000000000E+00   0.0000000000E+00   0.0000000000E+00   0.0000000000E+00   0.0000000000E+00   0.1500000134E+02   0.1782401151E-05   0.1609045179E-05  -0.4937054373E-14   0.6467208999E-07  -0.8563316334E-09
   0.1149999999E+01   0.0000000000E+00   0.1132625650E-08   0.4999999944E-01   0.0000000000E+00   0.2264048110E-08   0.9999999967E-01   0.0000000000E+00  -0.1131422461E-08   0.1500000035E+02  -0.2768881769E-06  -0.2039934860E-06  -0.2799548188E-07   0.1581017412E-07  -0.4520838762E-07
   0.1149999998E+01   0.9249999989E+00  -0.2236261991E-09   0.4999999851E-01  -0.2500000177E-01   0.1901803713E-09   0.9999999976E-01  -0.4999999933E-01  -0.4138065704E-09   0.1499999993E+02  -0.3604254603E-06  -0.2852266309E-06  -0.2096862673E-07   0.6223871544E-07   0.6700219281E-08
   0.0000000000E+00   0.9250000004E+00  -0.2568987595E-10   0.0000000000E+00  -0.2499999954E-01   0.7823587349E-09   0.0000000000E+00  -0.5000000004E-01  -0.8080486109E-09   0.1499999937E+02  -0.1110764845E-05  -0.7436791032E-06  -0.7906773463E-07  -0.7905318896E-08   0.4747016321E-08
   0.0000000000E+00   0.0000000000E+00   0.9250000021E+00   0.0000000000E+00   0.0000000000E+00  -0.2499999689E-01   0.0000000000E+00   0.0000000000E+00  -0.5000000097E-01   0.1500000015E+02  -0.2460914198E-06   0.1741945672E-06   0.4925050631E-15  -0.9375739573E-07  -0.1110918123E-07
   0.1150000000E+01   0.0000000000E+00   0.9249999998E+00   0.5000000002E-01   0.0000000000E+00  -0.2499999973E-01   0.1000000000E+00   0.0000000000E+00  -0.5000000043E-01   0.1500000036E+02   0.4224769571E-06   0.1789732302E-06   0.6334410660E-08  -0.1086421368E-07   0.1313474911E-07
   0.1150000000E+01   0.9250000005E+00   0.9250000002E+00   0.4999999987E-01  -0.2499999982E-01  -0.2499999890E-01   0.1000000004E+00  -0.4999999972E-01  -0.5000000087E-01   0.1500000008E+02  -0.7544675823E-06  -0.9959057101E-06  -0.1967327462E-07   0.3092874718E-07   0.6504335403E-07
   0.0000000000E+00   0.9250000006E+00   0.9250000018E+00   0.0000000000E+00  -0.2499999944E-01  -0.2499999813E-01   0.0000000000E+00  -0.4999999997E-01  -0.5000000006E-01   0.1499999961E+02  -0.4675251720E-06  -0.1602699108E-06   0.6907428679E-08  -0.6112303688E-07  -0.5505833329E-08
   0.2300000000E+01   0.0000000000E+00  -0.9648981235E-09   0.1000000000E+00   0.0000000000E+00  -0.3475395666E-09   0.2000000000E+00   0.0000000000E+00  -0.6173585568E-09   0.1499999930E+02  -0.7461704251E-06  -0.5712572457E-06   0.2935581786E-14  -0.9683535814E-07   0.2334095982E-07
   0.2300000000E+01   0.9250000008E+00  -0.2646691297E-09   0.1000000000E+00  -0.2499999905E-01   0.8563758097E-09   0.2000000000E+00  -0.5000000012E-01  -0.1121044939E-08   0.1500000064E+02   0.4203521531E-06   0.5789819821E-06   0.9312144301E-07  -0.6065700464E-10  -0.3712477754E-07
   0.2300000000E+01   0.0000000000E+00   0.9249999996E+00   0.1000000000E+00   0.0000000000E+00  -0.2499999911E-01   0.2000000000E+00   0.0000000000E+00  -0.5000000131E-01   0.1500000091E+02  -0.1012263809E-06  -0.3325011780E-06  -0.3077667645E-14   0.8245351071E-08   0.3816951453E-08
   0.2300000000E+01   0.9249999990E+00   0.9249999997E+00   0.1000000000E+00  -0.2500000091E-01  -0.2499999951E-01   0.2000000000E+00  -0.5000000006E-01  -0.5000000080E-01   0.1499999983E+02  -0.1135731651E-06   0.2924689601E-06  -0.5892280228E-07  -0.9462864513E-08  -0.5664878605E-07
     1     2     3     4     5     6     7     8
     2     9    10     3     6    11    12     7
 VARIABLES = X,Y,Z,DU1,DU2,DU3,U1,U2,U3,S11,S22,S33,S12,S13,S23
 ZONE, T="0.4000D+01" F=FEPOINT, I=   12 J=    2 ET=BRICK
   0.0000000000E+00   0.0000000000E+00   0.0000000000E+00   0.0000000000E+00   0.0000000000E+00   0.0000000000E+00   0.0000000000E+00   0.0000000000E+00   0.0000000000E+00   0.2000000083E+02   0.9777017364E-06   0.3060486624E-06  -0.2136351115E-14  -0.6799094741E-07  -0.4124948149E-07
   0.1199999999E+01   0.0000000000E+00  -0.1490082444E-08   0.5000000020E-01   0.0000000000E+00  -0.2622708093E-08   0.1499999991E+00   0.0000000000E+00   0.1132625650E-08   0.1999999938E+02  -0.5126461165E-06  -0.3870868600E-06   0.3244657453E-08  -0.2375819241E-07   0.1906470478E-07
   0.1199999999E+01   0.8999999998E+00  -0.9181412358E-09   0.5000000114E-01  -0.2499999906E-01  -0.6945150367E-09   0.1499999983E+00  -0.7500000110E-01  -0.2236261991E-09   0.2000000100E+02   0.1820023043E-06   0.1260028406E-06  -0.2601095828E-07   0.4104129305E-07   0.4566758137E-07
   0.0000000000E+00   0.9000000011E+00  -0.1237484603E-08   0.0000000000E+00  -0.2499999932E-01  -0.1211794727E-08   0.0000000000E+00  -0.7499999958E-01  -0.2568987595E-10   0.1999999890E+02  -0.1252992100E-05  -0.1094551030E-05  -0.4790484835E-07   0.3901307357E-08  -0.4645407225E-07
   0.0000000000E+00   0.0000000000E+00   0.8999999985E+00   0.0000000000E+00   0.0000000000E+00  -0.2500000360E-01   0.0000000000E+00   0.0000000000E+00  -0.7499999786E-01   0.2000000030E+02  -0.1090124796E-06  -0.4749550082E-07   0.1397872106E-14   0.7977326323E-07   0.4438891474E-07
   0.1199999999E+01   0.0000000000E+00   0.9000000003E+00   0.4999999892E-01   0.0000000000E+00  -0.2499999954E-01   0.1500000001E+00   0.0000000000E+00  -0.7500000016E-01   0.2000000056E+02  -0.2580291429E-06  -0.2534058651E-06   0.3088610716E-07   0.4836932406E-08  -0.3950769555E-07
   0.1200000000E+01   0.9000000006E+00   0.8999999991E+00   0.4999999966E-01  -0.2499999982E-01  -0.2500000112E-01   0.1500000003E+00  -0.7499999954E-01  -0.7499999977E-01   0.2000000029E+02  -0.8412989559E-07  -0.1299259561E-06   0.8798407496E-08  -0.1594229734E-07  -0.1290481673E-07
   0.0000000000E+00   0.9000000009E+00   0.8999999999E+00   0.0000000000E+00  -0.2499999965E-01  -0.2500000193E-01   0.0000000000E+00  -0.7499999942E-01  -0.7499999819E-01   0.2000000031E+02   0.2149151126E-06   0.1670350186E-06  -0.3777602850E-08  -0.2186130586E-07   0.3918432386E-07
   0.2400000000E+01   0.0000000000E+00  -0.7815798957E-09   0.1000000000E+00   0.0000000000E+00   0.1833182278E-09   0.3000000000E+00   0.0000000000E+00  -0.9648981235E-09   0.2000000088E+02  -0.6452964555E-06  -0.7214638453E-06  -0.4118784466E-15   0.4193827996E-07   0.3306660711E-07
   0.2400000000E+01   0.8999999993E+00   0.2104184226E-09   0.1000000000E+00  -0.2500000150E-01   0.4750875523E-09   0.3000000000E+00  -0.7499999916E-01  -0.2646691297E-09   0.1999999890E+02  -0.7325981835E-06  -0.8679805938E-06  -0.1060638824E-07   0.4436212476E-07   0.4219785437E-07
   0.2400000000E+01   0.0000000000E+00   0.8999999995E+00   0.1000000000E+00   0.0000000000E+00  -0.2500000010E-01   0.3000000000E+00   0.0000000000E+00  -0.7500000042E-01   0.1999999894E+02  -0.4250749787E-06  -0.4666193595E-06  -0.5555712806E-15  -0.4863566979E-07  -0.5245244558E-07
   0.2400000000E+01   0.8999999996E+00   0.8999999979E+00   0.1000000000E+00  -0.2499999941E-01  -0.2500000179E-01   0.3000000000E+00  -0.7500000098E-01  -0.7500000031E-01   0.2000000246E+02   0.9207387391E-06   0.7822854060E-06  -0.4039779053E-07  -0.4384245020E-07  -0.4332119992E-07
     1     2     3     4     5     6     7     8
     2     9    10     3     6    11    12     7
 VARIABLES = X,Y,Z,DU1,DU2,DU3,U1,U2,U3,S11,S22,S33,S12,S13,S23
 ZONE, T="0.5000D+01" F=FEPOINT, I=   12 J=    2 ET=BRICK
   0.0000000000E+00   0.0000000000E+00   0.0000000000E+00   0.0000000000E+00   0.0000000000E+00   0.0000000000E+00   0.0000000000E+00   0.0000000000E+00   0.0000000000E+00   0.2500000054E+02  -0.1281145119E-06  -0.2863570685E-07  -0.1592808663E-14  -0.1741094737E-07  -0.4936637214E-09
   0.1250000000E+01   0.0000000000E+00  -0.5388843522E-09   0.5000000090E-01   0.0000000000E+00   0.9511980917E-09   0.1999999993E+00   0.0000000000E+00  -0.1490082444E-08   0.2500000148E+02   0.1006090159E-05   0.9809350646E-06  -0.1430937726E-07  -0.3666282765E-07  -0.1106096093E-07
   0.1250000000E+01   0.8750000002E+00  -0.8707132592E-09   0.5000000038E-01  -0.2499999963E-01   0.4742797661E-10   0.1999999994E+00  -0.1000000002E+00  -0.9181412358E-09   0.2499999971E+02  -0.8890228215E-06  -0.7729592032E-06  -0.2060921220E-07   0.2655871329E-07   0.9807869266E-08
   0.0000000000E+00   0.8750000008E+00  -0.1480986880E-10   0.0000000000E+00  -0.2500000032E-01   0.1222674734E-08   0.0000000000E+00  -0.9999999891E-01  -0.1237484603E-08   0.2500000150E+02   0.1027687774E-05   0.9481810593E-06  -0.2479148992E-07  -0.4278565939E-07   0.2233613743E-08
   0.0000000000E+00   0.0000000000E+00   0.8749999991E+00   0.0000000000E+00   0.0000000000E+00  -0.2499999945E-01   0.0000000000E+00   0.0000000000E+00  -0.1000000015E+00   0.2500000046E+02   0.5137373988E-06  -0.9352561918E-07   0.1175727262E-14   0.2393987917E-07   0.1664156069E-08
   0.1250000000E+01   0.0000000000E+00   0.8749999997E+00   0.5000000070E-01   0.0000000000E+00  -0.2500000056E-01   0.1999999990E+00   0.0000000000E+00  -0.9999999970E-01   0.2500000070E+02   0.2349879596E-07   0.1908968797E-06   0.2986463084E-07  -0.1816141428E-08  -0.3264312235E-08
   0.1250000001E+01   0.8750000008E+00   0.8749999996E+00   0.5000000067E-01  -0.2499999980E-01  -0.2499999947E-01   0.1999999999E+00  -0.9999999936E-01  -0.1000000009E+00   0.2499999966E+02  -0.5195878703E-06  -0.8301620350E-06   0.1553212599E-07   0.2090167794E-07   0.1760451711E-07
   0.0000000000E+00   0.8750000009E+00   0.8749999991E+00   0.0000000000E+00  -0.2500000008E-01  -0.2500000073E-01   0.0000000000E+00  -0.9999999906E-01  -0.1000000001E+00   0.2500000125E+02   0.5814270645E-06   0.6797853741E-06   0.6437181611E-08   0.2727527433E-07   0.4391428260E-08
   0.2500000000E+01   0.0000000000E+00  -0.1143992482E-08   0.1000000000E+00   0.0000000000E+00  -0.3624125859E-09   0.4000000000E+00   0.0000000000E+00  -0.7815798957E-09   0.2499999913E+02  -0.1409911663E-05  -0.1325905494E-05   0.1264549240E-14  -0.2072213141E-07   0.3760139949E-07
   0.2500000000E+01   0.8750000004E+00  -0.1595033186E-10   0.1000000000E+00  -0.2499999894E-01  -0.2263687544E-09   0.4000000000E+00  -0.1000000007E+00   0.2104184226E-09   0.2500000066E+02   0.1950564579E-06   0.9407547268E-07   0.1219181839E-07   0.4274764606E-07   0.2426333321E-07
   0.2500000000E+01   0.0000000000E+00   0.8750000000E+00   0.1000000000E+00   0.0000000000E+00  -0.2499999943E-01   0.4000000000E+00   0.0000000000E+00  -0.1000000005E+00   0.2500000024E+02  -0.1949575014E-06  -0.2229097308E-06   0.1172250803E-14   0.7620420937E-08  -0.4124822956E-07
   0.2500000000E+01   0.8750000000E+00   0.8749999988E+00   0.1000000000E+00  -0.2499999961E-01  -0.2499999910E-01   0.4000000000E+00  -0.1000000004E+00  -0.1000000021E+00   0.2500000343E+02   0.2761962385E-05   0.2903147323E-05  -0.3510219079E-07  -0.3862736536E-07  -0.5458628903E-07
     1     2     3     4     5     6     7     8
     2     9    10     3     6    11    12     7
 VARIABLES = X,Y,Z,DU1,DU2,DU3,U1,U2,U3,S11,S22,S33,S12,S13,S23
 ZONE, T="0.6000D+01" F=FEPOINT, I=   12 J=    2 ET=BRICK
   0.0000000000E+00   0.0000000000E+00   0.0000000000E+00   0.0000000000E+00   0.0000000000E+00   0.0000000000E+00   0.0000000000E+00   0.0000000000E+00   0.0000000000E+00   0.2999999735E+02  -0.2866571064E-05  -0.3001542328E-05   0.9633261386E-14   0.9287326391E-07   0.1340829346E-06
   0.1299999996E+01   0.0000000000E+00   0.2325577498E-08   0.4999999615E-01   0.0000000000E+00   0.2864461850E-08   0.2500000002E+00   0.0000000000E+00  -0.5388843522E-09   0.3000000153E+02   0.2389316921E-05   0.2027352100E-05   0.1128429605E-06   0.8243576010E-07   0.8013418627E-07
   0.1300000000E+01   0.8500000039E+00   0.4729603304E-08   0.4999999997E-01  -0.2499999627E-01   0.5600316563E-08   0.2499999998E+00  -0.1249999998E+00  -0.8707132592E-09   0.3000000097E+02  -0.2238503988E-06  -0.5078120788E-06   0.3707847997E-07  -0.2923772739E-07  -0.9613701473E-07
   0.0000000000E+00   0.8500000031E+00   0.4022488433E-08   0.0000000000E+00  -0.2499999771E-01   0.4037298302E-08   0.0000000000E+00  -0.1249999992E+00  -0.1480986880E-10   0.3000000082E+02   0.1803035058E-05   0.1603033568E-05   0.8178031868E-07   0.3075242323E-07   0.7700144109E-07
   0.0000000000E+00   0.0000000000E+00   0.8500000052E+00   0.0000000000E+00   0.0000000000E+00  -0.2499999385E-01   0.0000000000E+00   0.0000000000E+00  -0.1250000009E+00   0.3000000188E+02   0.1903277874E-05   0.2926096621E-05  -0.3141303484E-14  -0.1436011392E-06  -0.6208721730E-07
   0.1299999997E+01   0.0000000000E+00   0.8500000018E+00   0.4999999775E-01   0.0000000000E+00  -0.2499999789E-01   0.2499999997E+00   0.0000000000E+00  -0.1250000003E+00   0.2999999965E+02  -0.2631859059E-05  -0.2518670604E-05   0.3877402011E-07  -0.1773870684E-07   0.6668651004E-07
   0.1299999999E+01   0.8499999987E+00   0.8500000038E+00   0.4999999801E-01  -0.2500000219E-01  -0.2499999579E-01   0.2500000006E+00  -0.1249999992E+00  -0.1250000004E+00   0.3000000150E+02   0.1535694146E-05   0.1273303962E-05  -0.3837813374E-07  -0.3827915425E-07  -0.1095846882E-06
   0.0000000000E+00   0.8500000014E+00   0.8500000034E+00   0.0000000000E+00  -0.2499999950E-01  -0.2499999576E-01   0.0000000000E+00  -0.1249999991E+00  -0.1250000009E+00   0.3000000287E+02   0.1121588855E-05   0.6882446766E-06  -0.9631041172E-07   0.2279520237E-07  -0.1191687131E-06
   0.2600000000E+01   0.0000000000E+00   0.2808671815E-08   0.1000000000E+00   0.0000000000E+00   0.3952664296E-08   0.5000000000E+00   0.0000000000E+00  -0.1143992482E-08   0.3000000018E+02   0.8637589211E-06   0.2446883717E-06  -0.7412950347E-14   0.7491183312E-09   0.5887383043E-07
   0.2600000000E+01   0.8499999985E+00   0.4574886828E-08   0.1000000000E+00  -0.2500000188E-01   0.4590837160E-08   0.5000000000E+00  -0.1249999996E+00  -0.1595033186E-10   0.2999999955E+02  -0.6214195257E-06  -0.7412764959E-06  -0.2333092764E-06  -0.1233914380E-07  -0.9830128261E-09
   0.2600000000E+01   0.0000000000E+00   0.8500000020E+00   0.1000000000E+00   0.0000000000E+00  -0.2499999800E-01   0.5000000000E+00   0.0000000000E+00  -0.1250000000E+00   0.3000000140E+02  -0.1415180897E-05  -0.4457350935E-06   0.6661159619E-15   0.3687458351E-07   0.4496978300E-07
   0.2600000000E+01   0.8499999967E+00   0.8500000034E+00   0.1000000000E+00  -0.2500000327E-01  -0.2499999541E-01   0.5000000000E+00  -0.1250000000E+00  -0.1250000012E+00   0.2999999833E+02  -0.1082840909E-05  -0.1606720563E-05  -0.5799390378E-07  -0.2246476610E-07  -0.1488706267E-07
     1     2     3     4     5     6     7     8
     2     9    10     3     6    11    12     7
 VARIABLES = X,Y,Z,DU1,DU2,DU3,U1,U2,U3,S11,S22,S33,S12,S13,S23
 ZONE, T="0.7000D+01" F=FEPOINT, I=   12 J=    2 ET=BRICK
   0.0000000000E+00   0.0000000000E+00   0.0000000000E+00   0.0000000000E+00   0.0000000000E+00   0.0000000000E+00   0.0000000000E+00   0.0000000000E+00   0.0000000000E+00   0.3500000312E+02   0.4325298397E-05   0.4560170700E-05   0.1725266036E-14  -0.6083357712E-07   0.1571954060E-06
   0.1349999996E+01   0.0000000000E+00  -0.2251824742E-08   0.4999999973E-01   0.0000000000E+00  -0.4577402240E-08   0.2999999964E+00   0.0000000000E+00   0.2325577498E-08   0.3499999944E+02  -0.1788383179E-05  -0.1707111967E-05   0.1517315834E-06   0.1588323756E-06   0.7545083311E-07
   0.1350000001E+01   0.8250000012E+00   0.1170036793E-10   0.5000000089E-01  -0.2500000272E-01  -0.4717902936E-08   0.2999999997E+00  -0.1499999961E+00   0.4729603304E-08   0.3500000255E+02   0.1685480733E-05   0.1737499738E-05   0.1006704334E-06  -0.7193051394E-07  -0.1388013607E-07
   0.0000000000E+00   0.8250000039E+00   0.4715862811E-08   0.0000000000E+00  -0.2499999914E-01   0.6933743773E-09   0.0000000000E+00  -0.1499999969E+00   0.4022488433E-08   0.3500000091E+02  -0.7332658574E-06  -0.9731115015E-06  -0.1094564053E-06  -0.1641940773E-06   0.1658517757E-07
   0.0000000000E+00   0.0000000000E+00   0.8250000013E+00   0.0000000000E+00   0.0000000000E+00  -0.2500000391E-01   0.0000000000E+00   0.0000000000E+00  -0.1499999948E+00   0.3500000163E+02   0.2201760113E-06   0.1840697085E-06  -0.4836456738E-14  -0.1039349507E-06  -0.6495644632E-07
   0.1350000004E+01   0.0000000000E+00   0.8249999987E+00   0.5000000653E-01   0.0000000000E+00  -0.2500000317E-01   0.2999999974E+00   0.0000000000E+00  -0.1499999982E+00   0.3500000102E+02  -0.2988689765E-06   0.4811133779E-07  -0.4051856299E-07   0.2036034522E-06   0.1220741827E-07
   0.1350000003E+01   0.8249999985E+00   0.8249999990E+00   0.5000000415E-01  -0.2500000011E-01  -0.2500000481E-01   0.2999999986E+00  -0.1500000013E+00  -0.1499999962E+00   0.3499999861E+02  -0.2609408282E-05  -0.2552876947E-05  -0.3360963361E-07   0.4193996191E-07  -0.7712354767E-07
   0.0000000000E+00   0.8249999997E+00   0.8249999994E+00   0.0000000000E+00  -0.2500000165E-01  -0.2500000400E-01   0.0000000000E+00  -0.1499999986E+00  -0.1499999966E+00   0.3500000105E+02   0.3094134467E-06   0.1203186704E-06  -0.6152256111E-07  -0.3482495881E-08  -0.2055666809E-06
   0.2700000000E+01   0.0000000000E+00  -0.6210918685E-08   0.1000000000E+00   0.0000000000E+00  -0.9019590499E-08   0.6000000000E+00   0.0000000000E+00   0.2808671815E-08   0.3500000411E+02   0.2519839931E-05   0.2964227568E-05   0.7852665540E-14  -0.1461970236E-06   0.8016992057E-07
   0.2700000000E+01   0.8250000009E+00  -0.3805820877E-08   0.1000000000E+00  -0.2499999766E-01  -0.8380707705E-08   0.6000000000E+00  -0.1500000015E+00   0.4574886828E-08   0.3499999798E+02  -0.3426191236E-05  -0.3327566308E-05   0.7334111451E-08  -0.1198620290E-06   0.5549986408E-07
   0.2700000000E+01   0.0000000000E+00   0.8249999978E+00   0.1000000000E+00   0.0000000000E+00  -0.2500000423E-01   0.6000000000E+00   0.0000000000E+00  -0.1499999980E+00   0.3499999682E+02  -0.1436057400E-05  -0.2151258155E-05   0.3600148938E-14  -0.1355349377E-07  -0.3783122426E-08
   0.2700000000E+01   0.8250000001E+00   0.8249999977E+00   0.1000000000E+00  -0.2499999660E-01  -0.2500000570E-01   0.6000000000E+00  -0.1500000033E+00  -0.1499999966E+00   0.3500000279E+02   0.3158620975E-05   0.3728832847E-05   0.7534042381E-07  -0.5283265177E-07  -0.2845318090E-07
     1     2     3     4     5     6     7     8
     2     9    10     3     6    11    12     7
 VARIABLES = X,Y,Z,DU1,DU2,DU3,U1,U2,U3,S11,S22,S33,S12,S13,S23
 ZONE, T="0.8000D+01" F=FEPOINT, I=   12 J=    2 ET=BRICK
   0.0000000000E+00   0.0000000000E+00   0.0000000000E+00   0.0000000000E+00   0.0000000000E+00   0.0000000000E+00   0.0000000000E+00   0.0000000000E+00   0.0000000000E+00   0.4000000282E+02   0.2107583085E-05   0.2224711195E-05  -0.7649198470E-14  -0.3790638658E-08   0.8470303688E-07
   0.1399999999E+01   0.0000000000E+00  -0.6494742587E-09   0.5000000291E-01   0.0000000000E+00   0.1602350484E-08   0.3499999961E+00   0.0000000000E+00  -0.2251824742E-08   0.4000000227E+02   0.2235566695E-05   0.2015555958E-05  -0.2377842062E-07   0.2956290520E-07   0.3566167822E-07
   0.1399999998E+01   0.7999999994E+00   0.4203761539E-09   0.4999999764E-01  -0.2500000179E-01   0.4086757859E-09   0.3500000006E+00  -0.1749999988E+00   0.1170036793E-10   0.4000000195E+02   0.6756960620E-06   0.1166622979E-05  -0.6590214757E-07   0.5781836191E-07   0.6179046358E-07
   0.0000000000E+00   0.8000000029E+00   0.2541091376E-08   0.0000000000E+00  -0.2500000106E-01  -0.2174771435E-08   0.0000000000E+00  -0.1749999961E+00   0.4715862811E-08   0.3999999621E+02  -0.3710691563E-05  -0.4451169451E-05  -0.1508930439E-06  -0.5248153997E-07  -0.1245410987E-07
   0.0000000000E+00   0.0000000000E+00   0.8000000014E+00   0.0000000000E+00   0.0000000000E+00  -0.2499999993E-01   0.0000000000E+00   0.0000000000E+00  -0.1749999987E+00   0.3999999935E+02  -0.8147385960E-06  -0.1208093212E-05   0.2601437927E-14  -0.6615414200E-07   0.1134530449E-08
   0.1400000002E+01   0.0000000000E+00   0.7999999998E+00   0.4999999765E-01   0.0000000000E+00  -0.2499999888E-01   0.3500000040E+00   0.0000000000E+00  -0.1750000013E+00   0.4000000133E+02  -0.5111532958E-06  -0.4866249462E-06   0.5421931499E-07   0.5738628666E-07  -0.5048101496E-07
   0.1400000003E+01   0.8000000002E+00   0.7999999983E+00   0.5000000049E-01  -0.2499999833E-01  -0.2500000076E-01   0.3500000027E+00  -0.1750000015E+00  -0.1750000010E+00   0.4000000158E+02   0.1704704293E-05   0.1201439129E-05   0.9014373873E-07   0.1070882438E-06  -0.2435222713E-07
   0.0000000000E+00   0.8000000000E+00   0.8000000014E+00   0.0000000000E+00  -0.2499999975E-01  -0.2499999795E-01   0.0000000000E+00  -0.1750000003E+00  -0.1750000006E+00   0.4000000261E+02   0.8494467326E-06   0.1831805720E-05  -0.4988219253E-08  -0.1294295768E-06  -0.9602261032E-07
   0.2800000000E+01   0.0000000000E+00  -0.3441969068E-08   0.1000000000E+00   0.0000000000E+00   0.2768949617E-08   0.7000000000E+00   0.0000000000E+00  -0.6210918685E-08   0.4000000257E+02   0.1857335908E-05   0.1887243920E-05   0.2010226415E-14  -0.1109416725E-06  -0.1478151079E-07
   0.2800000000E+01   0.8000000003E+00  -0.3885414453E-08   0.1000000000E+00  -0.2500000052E-01  -0.7959357613E-10   0.7000000000E+00  -0.1749999991E+00  -0.3805820877E-08   0.3999999301E+02  -0.7431586152E-05  -0.7534699430E-05   0.6664558799E-07  -0.1617352805E-06   0.4415765322E-07
   0.2800000000E+01   0.0000000000E+00   0.7999999996E+00   0.1000000000E+00   0.0000000000E+00  -0.2499999818E-01   0.7000000000E+00   0.0000000000E+00  -0.1750000022E+00   0.4000000303E+02   0.3132174907E-05   0.3174763041E-05   0.6769859673E-14   0.7068602937E-08  -0.5545700597E-07
   0.2800000000E+01   0.8000000021E+00   0.7999999980E+00   0.1000000000E+00  -0.2499999801E-01  -0.2499999973E-01   0.7000000000E+00  -0.1749999999E+00  -0.1750000023E+00   0.3999999957E+02  -0.1206113900E-05  -0.1053102812E-05   0.7683707358E-07   0.1375250003E-07   0.3482156253E-08
     1     2     3     4     5     6     7     8
     2     9    10     3     6    11    12     7
 VARIABLES = X,Y,Z,DU1,DU2,DU3,U1,U2,U3,S11,S22,S33,S12,S13,S23
 ZONE, T="0.9000D+01" F=FEPOINT, I=   12 J=    2 ET=BRICK
   0.0000000000E+00   0.0000000000E+00   0.0000000000E+00   0.0000000000E+00   0.0000000000E+00   0.0000000000E+00   0.0000000000E+00   0.0000000000E+00   0.0000000000E+00   0.4499999953E+02  -0.1300430165E-05  -0.1431713119E-05   0.8546387018E-15   0.2770947263E-06   0.6984298864E-07