 VARIABLES = X,Y,Z,S11,S22,S33,S12,S13,S23
 ZONE, T="0.1000D+01" F=FEPOINT, I=   12 J=    2 ET=BRICK
   0.0000000000E+00   0.0000000000E+00   0.0000000000E+00   0.3027288369E+02   0.3396170741E-11   0.3397326100E-11  -0.4532423073E-14  -0.1046246049E-14  -0.1579732194E-14
   0.1900000000E+01  -0.1847739113E-15   0.9029680687E-18   0.3027288369E+02   0.3697314071E-11   0.3696894768E-11   0.1680304606E-14   0.1669010197E-14  -0.2496036139E-16
   0.1900000000E+01   0.7291274386E+00  -0.4391733523E-18   0.3027288369E+02   0.4228904652E-11   0.4230123361E-11   0.5469519003E-14  -0.5836165439E-14  -0.9586380674E-16
   0.0000000000E+00   0.7291274386E+00   0.0000000000E+00   0.3027288369E+02   0.3921207281E-11   0.3921543633E-11   0.2761195827E-14   0.2173698272E-15   0.1772431471E-14
   0.0000000000E+00  -0.2073709279E-15   0.7291274386E+00   0.3027288369E+02   0.4075273865E-11   0.4071781014E-11   0.1040927680E-14   0.1642787170E-14  -0.1913994156E-14
   0.1900000000E+01  -0.1802393354E-15   0.7291274386E+00   0.3027288369E+02   0.3696968495E-11   0.3696895344E-11  -0.1727426785E-14   0.3359858802E-14   0.4996103520E-15
   0.1900000000E+01   0.7291274386E+00   0.7291274386E+00   0.3027288368E+02   0.4228556346E-11   0.4230121208E-11  -0.2592382530E-14  -0.4277808830E-14   0.4287069066E-15
   0.0000000000E+00   0.7291274386E+00   0.7291274386E+00   0.3027288368E+02   0.3597577230E-11   0.3593265373E-11  -0.1327457768E-14   0.6541813893E-14   0.1438169509E-14
   0.3800000000E+01  -0.2094636577E-15   0.1587197148E-16   0.3027288369E+02   0.4678142456E-11   0.4678225407E-11   0.3093004176E-15   0.4147947777E-15   0.8590988680E-15
   0.3800000000E+01   0.7291274386E+00   0.1325764819E-15   0.3027288369E+02   0.3861831415E-11   0.3859457347E-11   0.5941103121E-15   0.4120860464E-14   0.3379475030E-15
   0.3800000000E+01  -0.2115895665E-15   0.7291274386E+00   0.3027288369E+02   0.4001621347E-11   0.4003768788E-11  -0.1502946185E-14   0.1107458772E-14   0.1280087879E-15
   0.3800000000E+01   0.7291274386E+00   0.7291274386E+00   0.3027288368E+02   0.4188051541E-11   0.4187741964E-11  -0.8644722285E-15   0.9131296153E-15  -0.3931425769E-15
     1     2     3     4     5     6     7     8
     2     9    10     3     6    11    12     7
 VARIABLES = X,Y,Z,S11,S22,S33,S12,S13,S23
 ZONE, T="0.2000D+01" F=FEPOINT, I=   12 J=    2 ET=BRICK
   0.0000000000E+00   0.0000000000E+00   0.0000000000E+00   0.2953200467E+02   0.7407823070E+00  -0.4786439001E-04   0.4677417615E+01  -0.1812161906E-08  -0.2870196974E-09
   0.1876607787E+01   0.2972254742E+00  -0.6546358801E-10   0.2953205323E+02   0.7408304596E+00   0.6906314591E-09   0.4677418589E+01  -0.2703641565E-15  -0.3822616687E-15
   0.1762547246E+01   0.1017376163E+01  -0.6546369341E-10   0.2953205322E+02   0.7408304595E+00   0.6906986695E-09   0.4677418588E+01  -0.4686301493E-14  -0.1293518096E-14
  -0.1140606608E+00   0.7201506699E+00   0.0000000000E+00   0.2953210231E+02   0.7408780825E+00   0.4786439746E-04   0.4677417914E+01  -0.1812165875E-08  -0.2870174890E-09
   0.3243996017E-16  -0.2048178477E-15   0.7291274386E+00   0.2953200467E+02   0.7407823069E+00  -0.4786438940E-04   0.4677417614E+01   0.1812168084E-08   0.2870177522E-09
   0.1876607787E+01   0.2972254742E+00   0.7291274386E+00   0.2953205322E+02   0.7408304595E+00   0.6903640618E-09   0.4677418588E+01   0.1844718457E-14   0.8341125237E-15
   0.1762547246E+01   0.1017376163E+01   0.7291274386E+00   0.2953205322E+02   0.7408304594E+00   0.6910193687E-09   0.4677418588E+01  -0.4111511872E-14  -0.3212741338E-15
  -0.1140606608E+00   0.7201506699E+00   0.7291274386E+00   0.2953210231E+02   0.7408780825E+00   0.4786439718E-04   0.4677417913E+01   0.1812167008E-08   0.2870204186E-09
   0.3753215694E+01   0.5944509672E+00   0.1587197148E-16   0.2953210232E+02   0.7408780826E+00   0.4786439709E-04   0.4677417914E+01   0.1812159873E-08   0.2870193151E-09
   0.3639155033E+01   0.1314601637E+01   0.1325764819E-15   0.2953200467E+02   0.7407823069E+00  -0.4786438973E-04   0.4677417614E+01   0.1812170650E-08   0.2870199290E-09
   0.3753215694E+01   0.5944509672E+00   0.7291274386E+00   0.2953210231E+02   0.7408780825E+00   0.4786439780E-04   0.4677417914E+01  -0.1812165481E-08  -0.2870182650E-09
   0.3639155033E+01   0.1314601637E+01   0.7291274386E+00   0.2953200467E+02   0.7407823068E+00  -0.4786438931E-04   0.4677417614E+01  -0.1812160678E-08  -0.2870185973E-09
     1     2     3     4     5     6     7     8
     2     9    10     3     6    11    12     7
 VARIABLES = X,Y,Z,S11,S22,S33,S12,S13,S23
 ZONE, T="0.3000D+01" F=FEPOINT, I=   12 J=    2 ET=BRICK
   0.0000000000E+00   0.0000000000E+00   0.0000000000E+00   0.2738257847E+02   0.2891296919E+01   0.4908225566E-03   0.8896982966E+01  -0.2728523305E-05  -0.8865510920E-06
   0.1807007933E+01   0.5871325950E+00  -0.1023632485E-06   0.2738203795E+02   0.2890745360E+01  -0.4675791889E-04   0.8896971831E+01   0.4312693382E-12   0.1322318256E-13
   0.1581694059E+01   0.1280573385E+01  -0.1023632485E-06   0.2738203795E+02   0.2890745360E+01  -0.4675791817E-04   0.8896971830E+01  -0.4346951634E-12  -0.1536791169E-13
  -0.2253127696E+00   0.6934414017E+00   0.0000000000E+00   0.2738158259E+02   0.2890309397E+01  -0.4908225200E-03   0.8896971611E+01  -0.2728524173E-05  -0.8865511165E-06
   0.6408114086E-16  -0.1972214723E-15   0.7291274386E+00   0.2738257847E+02   0.2891296918E+01   0.4908225578E-03   0.8896982965E+01   0.2728523308E-05   0.8865510900E-06
   0.1807007933E+01   0.5871325950E+00   0.7291275409E+00   0.2738203795E+02   0.2890745360E+01  -0.4675791932E-04   0.8896971830E+01  -0.4330894990E-12  -0.1265264968E-13
   0.1581694059E+01   0.1280573385E+01   0.7291275409E+00   0.2738203794E+02   0.2890745359E+01  -0.4675791905E-04   0.8896971829E+01   0.4314515072E-12   0.1269996756E-13
  -0.2253127696E+00   0.6934414017E+00   0.7291274386E+00   0.2738158259E+02   0.2890309397E+01  -0.4908225195E-03   0.8896971610E+01   0.2728524175E-05   0.8865511208E-06
   0.3614014762E+01   0.1174264579E+01   0.1587197148E-16   0.2738158259E+02   0.2890309398E+01  -0.4908225190E-03   0.8896971612E+01   0.2728524171E-05   0.8865511177E-06
   0.3388701992E+01   0.1867705980E+01   0.1325764819E-15   0.2738257847E+02   0.2891296918E+01   0.4908225567E-03   0.8896982964E+01   0.2728523309E-05   0.8865510928E-06
   0.3614014762E+01   0.1174264579E+01   0.7291274386E+00   0.2738158259E+02   0.2890309397E+01  -0.4908225199E-03   0.8896971611E+01  -0.2728524170E-05  -0.8865511183E-06
   0.3388701992E+01   0.1867705980E+01   0.7291274386E+00   0.2738257846E+02   0.2891296918E+01   0.4908225567E-03   0.8896982963E+01  -0.2728523305E-05  -0.8865510906E-06
     1     2     3     4     5     6     7     8
     2     9    10     3     6    11    12     7
 VARIABLES = X,Y,Z,S11,S22,S33,S12,S13,S23
 ZONE, T="0.4000D+01" F=FEPOINT, I=   12 J=    2 ET=BRICK
   0.0000000000E+00   0.0000000000E+00   0.0000000000E+00   0.2403339662E+02   0.6239442305E+01  -0.2215830740E-04   0.1224563850E+02  -0.3338408444E-09  -0.1701025743E-09
   0.1692912371E+01   0.8625819368E+00  -0.1336847831E-10   0.2403341881E+02   0.6239464880E+01   0.2279858361E-09   0.1224563892E+02  -0.4099556640E-14  -0.1615370294E-14
   0.1361895491E+01   0.1512239267E+01  -0.1336838260E-10   0.2403341881E+02   0.6239464880E+01   0.2273552489E-09   0.1224563892E+02  -0.1201523550E-14  -0.2049282862E-14
  -0.3310169302E+00   0.6496573047E+00   0.0000000000E+00   0.2403344165E+02   0.6239486807E+01   0.2215831527E-04   0.1224563887E+02  -0.3338401918E-09  -0.1700977570E-09
   0.9414443119E-16  -0.1847688497E-15   0.7291274386E+00   0.2403339661E+02   0.6239442304E+01  -0.2215830698E-04   0.1224563850E+02   0.3338431007E-09   0.1700997277E-09
   0.1692912371E+01   0.8625819368E+00   0.7291274386E+00   0.2403341881E+02   0.6239464880E+01   0.2277484158E-09   0.1224563892E+02  -0.1922957515E-14  -0.9903754651E-15
   0.1361895491E+01   0.1512239267E+01   0.7291274386E+00   0.2403341880E+02   0.6239464879E+01   0.2275760125E-09   0.1224563892E+02  -0.3175862732E-15  -0.2082940063E-14
  -0.3310169302E+00   0.6496573047E+00   0.7291274386E+00   0.2403344165E+02   0.6239486807E+01   0.2215831567E-04   0.1224563887E+02   0.3338420215E-09   0.1701036626E-09
   0.3385824792E+01   0.1725163899E+01   0.1587197148E-16   0.2403344165E+02   0.6239486808E+01   0.2215831467E-04   0.1224563887E+02   0.3338402358E-09   0.1701000682E-09
   0.3054807862E+01   0.2374821204E+01   0.1325764819E-15   0.2403339661E+02   0.6239442304E+01  -0.2215830766E-04   0.1224563850E+02   0.3338430216E-09   0.1701007769E-09
   0.3385824792E+01   0.1725163899E+01   0.7291274386E+00   0.2403344165E+02   0.6239486807E+01   0.2215831537E-04   0.1224563887E+02  -0.3338395552E-09  -0.1701005929E-09
   0.3054807862E+01   0.2374821204E+01   0.7291274386E+00   0.2403339661E+02   0.6239442303E+01  -0.2215830719E-04   0.1224563850E+02  -0.3338376230E-09  -0.1701003191E-09
     1     2     3     4     5     6     7     8
     2     9    10     3     6    11    12     7
 VARIABLES = X,Y,Z,S11,S22,S33,S12,S13,S23
 ZONE, T="0.5000D+01" F=FEPOINT, I=   12 J=    2 ET=BRICK
   0.0000000000E+00   0.0000000000E+00   0.0000000000E+00   0.1981382297E+02   0.1045898767E+02  -0.3615518852E-04   0.1439561130E+02  -0.1243230545E-08  -0.9032620724E-09
   0.1537132252E+01   0.1116791953E+01  -0.5482985443E-10   0.1981385899E+02   0.1045902470E+02   0.1447359590E-08   0.1439561185E+02  -0.1096381679E-14  -0.1576754868E-14
   0.1108561971E+01   0.1706668495E+01  -0.5482995509E-10   0.1981385898E+02   0.1045902470E+02   0.1447599306E-08   0.1439561185E+02   0.1436143165E-14  -0.1131320649E-14
  -0.4285703554E+00   0.5898764889E+00   0.0000000000E+00   0.1981389625E+02   0.1045906049E+02   0.3615519744E-04   0.1439561200E+02  -0.1243235954E-08  -0.9032618147E-09
   0.1218895732E-15  -0.1677666048E-15   0.7291274386E+00   0.1981382297E+02   0.1045898767E+02  -0.3615518793E-04   0.1439561130E+02   0.1243232870E-08   0.9032592562E-09
   0.1537132252E+01   0.1116791953E+01   0.7291274386E+00   0.1981385898E+02   0.1045902470E+02   0.1447451713E-08   0.1439561185E+02  -0.7693803165E-15   0.1410100914E-14
   0.1108561971E+01   0.1706668495E+01   0.7291274386E+00   0.1981385898E+02   0.1045902470E+02   0.1448168681E-08   0.1439561185E+02   0.7261357005E-15   0.1101957824E-14
  -0.4285703554E+00   0.5898764889E+00   0.7291274386E+00   0.1981389625E+02   0.1045906049E+02   0.3615519700E-04   0.1439561200E+02   0.1243236491E-08   0.9032660741E-09
   0.3074264579E+01   0.2233583959E+01   0.1587197148E-16   0.1981389625E+02   0.1045906049E+02   0.3615519749E-04   0.1439561200E+02   0.1243231152E-08   0.9032616920E-09
   0.2645694223E+01   0.2823460448E+01   0.1325764819E-15   0.1981382297E+02   0.1045898767E+02  -0.3615518909E-04   0.1439561130E+02   0.1243234884E-08   0.9032629771E-09
   0.3074264579E+01   0.2233583959E+01   0.7291274386E+00   0.1981389625E+02   0.1045906049E+02   0.3615519734E-04   0.1439561200E+02  -0.1243228415E-08  -0.9032580587E-09
   0.2645694223E+01   0.2823460448E+01   0.7291274386E+00   0.1981382296E+02   0.1045898767E+02  -0.3615518844E-04   0.1439561129E+02  -0.1243235786E-08  -0.9032648410E-09
     1     2     3     4     5     6     7     8
     2     9    10     3     6    11    12     7
 VARIABLES = X,Y,Z,S11,S22,S33,S12,S13,S23
 ZONE, T="0.6000D+01" F=FEPOINT, I=   12 J=    2 ET=BRICK
   0.0000000000E+00   0.0000000000E+00   0.0000000000E+00   0.1513640520E+02   0.1513640521E+02  -0.3627042382E-04   0.1513644147E+02  -0.2450887489E-08  -0.2450889610E-08
   0.1343502852E+01   0.1343502852E+01  -0.1236691178E-09   0.1513644119E+02   0.1513644250E+02   0.4117260689E-08   0.1513644185E+02  -0.9982566232E-16   0.1746920003E-14
   0.8279319606E+00   0.1859073873E+01  -0.1236692480E-09   0.1513644119E+02   0.1513644250E+02   0.4117549687E-08   0.1513644185E+02   0.1343777478E-14  -0.1966725276E-14
  -0.5155709562E+00   0.5155709562E+00   0.0000000000E+00   0.1513647849E+02   0.1513647848E+02   0.3627043200E-04   0.1513644222E+02  -0.2450893825E-08  -0.2450890936E-08
   0.1466333893E-15  -0.1466333893E-15   0.7291274386E+00   0.1513640520E+02   0.1513640521E+02  -0.3627042326E-04   0.1513644147E+02   0.2450891247E-08   0.2450889223E-08
   0.1343502852E+01   0.1343502852E+01   0.7291274387E+00   0.1513644119E+02   0.1513644250E+02   0.4116820884E-08   0.1513644185E+02  -0.1829468084E-15   0.4629220020E-14
   0.8279319606E+00   0.1859073873E+01   0.7291274387E+00   0.1513644118E+02   0.1513644250E+02   0.4116651695E-08   0.1513644184E+02   0.4154232485E-15   0.6949224463E-16
  -0.5155709562E+00   0.5155709562E+00   0.7291274386E+00   0.1513647849E+02   0.1513647848E+02   0.3627043279E-04   0.1513644221E+02   0.2450892170E-08   0.2450895154E-08
   0.2687005769E+01   0.2687005769E+01   0.1587197148E-16   0.1513647849E+02   0.1513647848E+02   0.3627043222E-04   0.1513644222E+02   0.2450888798E-08   0.2450887268E-08
   0.2171434812E+01   0.3202576725E+01   0.1325764819E-15   0.1513640520E+02   0.1513640520E+02  -0.3627042326E-04   0.1513644147E+02   0.2450892846E-08   0.2450895874E-08
   0.2687005769E+01   0.2687005769E+01   0.7291274386E+00   0.1513647849E+02   0.1513647848E+02   0.3627043189E-04   0.1513644221E+02  -0.2450886696E-08  -0.2450889207E-08
   0.2171434812E+01   0.3202576725E+01   0.7291274386E+00   0.1513640520E+02   0.1513640520E+02  -0.3627042356E-04   0.1513644147E+02  -0.2450891597E-08  -0.2450889551E-08
     1     2     3     4     5     6     7     8
     2     9    10     3     6    11    12     7
 VARIABLES = X,Y,Z,S11,S22,S33,S12,S13,S23
 ZONE, T="0.7000D+01" F=FEPOINT, I=   12 J=    2 ET=BRICK
   0.0000000000E+00   0.0000000000E+00   0.0000000000E+00   0.1045901107E+02   0.1981384652E+02  -0.1291512811E-04   0.1439561152E+02  -0.1688792591E-08  -0.2324426652E-08
   0.1116791970E+01   0.1537132276E+01  -0.1025133797E-09   0.1045902386E+02   0.1981385983E+02   0.4323087905E-08   0.1439561158E+02  -0.1721614082E-14  -0.9768177714E-15
   0.5269155001E+00   0.1965702658E+01  -0.1025134477E-09   0.1045902386E+02   0.1981385983E+02   0.4322230853E-08   0.1439561158E+02  -0.2201890979E-14  -0.2064383088E-14
  -0.5898764889E+00   0.4285703554E+00   0.0000000000E+00   0.1045903709E+02   0.1981387269E+02   0.1291513742E-04   0.1439561178E+02  -0.1688795320E-08  -0.2324424657E-08
   0.1677666048E-15  -0.1218895732E-15   0.7291274386E+00   0.1045901107E+02   0.1981384652E+02  -0.1291512739E-04   0.1439561152E+02   0.1688799177E-08   0.2324429414E-08
   0.1116791970E+01   0.1537132276E+01   0.7291274387E+00   0.1045902386E+02   0.1981385983E+02   0.4323155682E-08   0.1439561158E+02   0.1136389738E-14   0.9026638596E-16
   0.5269155001E+00   0.1965702658E+01   0.7291274387E+00   0.1045902386E+02   0.1981385983E+02   0.4322886718E-08   0.1439561158E+02  -0.4938953989E-15  -0.2580849405E-14
  -0.5898764889E+00   0.4285703554E+00   0.7291274386E+00   0.1045903709E+02   0.1981387269E+02   0.1291513705E-04   0.1439561177E+02   0.1688792596E-08   0.2324426105E-08
   0.2233583959E+01   0.3074264579E+01   0.1587197148E-16   0.1045903709E+02   0.1981387269E+02   0.1291513698E-04   0.1439561178E+02   0.1688792918E-08   0.2324427923E-08
   0.1643707470E+01   0.3502834934E+01   0.1325764819E-15   0.1045901107E+02   0.1981384652E+02  -0.1291512840E-04   0.1439561152E+02   0.1688796181E-08   0.2324431656E-08
   0.2233583959E+01   0.3074264579E+01   0.7291274386E+00   0.1045903709E+02   0.1981387269E+02   0.1291513690E-04   0.1439561177E+02  -0.1688795127E-08  -0.2324424560E-08
   0.1643707470E+01   0.3502834934E+01   0.7291274386E+00   0.1045901107E+02   0.1981384652E+02  -0.1291512858E-04   0.1439561152E+02  -0.1688790312E-08  -0.2324418691E-08
     1     2     3     4     5     6     7     8
     2     9    10     3     6    11    12     7
 VARIABLES = X,Y,Z,S11,S22,S33,S12,S13,S23
 ZONE, T="0.8000D+01" F=FEPOINT, I=   12 J=    2 ET=BRICK
   0.0000000000E+00   0.0000000000E+00   0.0000000000E+00   0.6239459449E+01   0.2403341397E+02  -0.5085708889E-05   0.1224563865E+02  -0.1056461211E-09  -0.2073460492E-09
   0.8625819466E+00   0.1692912390E+01  -0.8303028136E-11   0.6239464482E+01   0.2403341921E+02   0.5639676307E-09   0.1224563863E+02  -0.8512158760E-15  -0.4976324673E-14
   0.2129246477E+00   0.2023929332E+01  -0.8303024057E-11   0.6239464481E+01   0.2403341921E+02   0.5636069913E-09   0.1224563863E+02   0.9723911957E-16  -0.1537747005E-14
  -0.6496573047E+00   0.3310169302E+00   0.0000000000E+00   0.6239469663E+01   0.2403342430E+02   0.5085717490E-05   0.1224563873E+02  -0.1056495123E-09  -0.2073451126E-09
   0.1847688497E-15  -0.9414443119E-16   0.7291274386E+00   0.6239459448E+01   0.2403341396E+02  -0.5085709024E-05   0.1224563864E+02   0.1056494222E-09   0.2073442066E-09
   0.8625819466E+00   0.1692912390E+01   0.7291274386E+00   0.6239464481E+01   0.2403341921E+02   0.5632638810E-09   0.1224563863E+02  -0.1469571061E-14  -0.2295217666E-14
   0.2129246477E+00   0.2023929332E+01   0.7291274386E+00   0.6239464481E+01   0.2403341920E+02   0.5633673863E-09   0.1224563863E+02  -0.1250134865E-14  -0.2874258450E-15
  -0.6496573047E+00   0.3310169302E+00   0.7291274386E+00   0.6239469662E+01   0.2403342430E+02   0.5085718326E-05   0.1224563873E+02   0.1056490302E-09   0.2073510295E-09
   0.1725163899E+01   0.3385824792E+01   0.1587197148E-16   0.6239469664E+01   0.2403342430E+02   0.5085717351E-05   0.1224563873E+02   0.1056471307E-09   0.2073453885E-09
   0.1075506594E+01   0.3716841722E+01   0.1325764819E-15   0.6239459448E+01   0.2403341396E+02  -0.5085708816E-05   0.1224563864E+02   0.1056497066E-09   0.2073454186E-09
   0.1725163899E+01   0.3385824792E+01   0.7291274386E+00   0.6239469663E+01   0.2403342430E+02   0.5085718361E-05   0.1224563873E+02  -0.1056454399E-09  -0.2073416498E-09
   0.1075506594E+01   0.3716841722E+01   0.7291274386E+00   0.6239459447E+01   0.2403341396E+02  -0.5085709037E-05   0.1224563864E+02  -0.1056473212E-09  -0.2073503676E-09
     1     2     3     4     5     6     7     8
     2     9    10     3     6    11    12     7
 VARIABLES = X,Y,Z,S11,S22,S33,S12,S13,S23
 ZONE, T="0.9000D+01" F=FEPOINT, I=   12 J=    2 ET=BRICK
   0.0000000000E+00   0.0000000000E+00   0.0000000000E+00   0.2890590422E+01   0.2738186427E+02  -0.2123270615E-03   0.8896976020E+01   0.3031593192E-08   0.9330279389E-08
   0.5871322069E+00   0.1807007126E+01   0.3500346070E-09   0.2890801052E+01   0.2738208293E+02   0.1337603994E-06   0.8896974173E+01   0.5624132600E-15  -0.1342043840E-14
  -0.1063090299E+00   0.2032320406E+01   0.3500345198E-09   0.2890801052E+01   0.2738208293E+02   0.1337603596E-06   0.8896974172E+01  -0.5064711137E-15   0.4144178893E-14
  -0.6934414017E+00   0.2253127696E+00   0.0000000000E+00   0.2891015893E+01   0.2738229680E+02   0.2123270700E-03   0.8896978557E+01   0.3031587896E-08   0.9330276681E-08
   0.1972214723E-15  -0.6408114086E-16   0.7291274386E+00   0.2890590422E+01   0.2738186426E+02  -0.2123270603E-03   0.8896976019E+01  -0.3031589313E-08  -0.9330276632E-08
   0.5871322069E+00   0.1807007126E+01   0.7291274382E+00   0.2890801052E+01   0.2738208293E+02   0.1337606364E-06   0.8896974172E+01  -0.1271737890E-16  -0.4656552372E-15
  -0.1063090299E+00   0.2032320406E+01   0.7291274382E+00   0.2890801051E+01   0.2738208292E+02   0.1337603955E-06   0.8896974171E+01  -0.7086554552E-15   0.6150499225E-14
  -0.6934414017E+00   0.2253127696E+00   0.7291274386E+00   0.2891015893E+01   0.2738229679E+02   0.2123270702E-03   0.8896978556E+01  -0.3031592573E-08  -0.9330273093E-08
   0.1174264579E+01   0.3614014762E+01   0.1587197148E-16   0.2891015894E+01   0.2738229680E+02   0.2123270706E-03   0.8896978557E+01  -0.3031592045E-08  -0.9330277981E-08
   0.4808231770E+00   0.3839327532E+01   0.1325764819E-15   0.2890590422E+01   0.2738186426E+02  -0.2123270600E-03   0.8896976018E+01  -0.3031590227E-08  -0.9330280029E-08
   0.1174264579E+01   0.3614014762E+01   0.7291274386E+00   0.2891015893E+01   0.2738229680E+02   0.2123270702E-03   0.8896978556E+01   0.3031591571E-08   0.9330279056E-08
   0.4808231770E+00   0.3839327532E+01   0.7291274386E+00   0.2890590422E+01   0.2738186426E+02  -0.2123270611E-03   0.8896976017E+01   0.3031592100E-08   0.9330273020E-08
     1     2     3     4     5     6     7     8
     2     9    10     3     6    11    12     7
 VARIABLES = X,Y,Z,S11,S22,S33,S12,S13,S23
 ZONE, T="0.1000D+02" F=FEPOINT, I=   12 J=    2 ET=BRICK
   0.0000000000E+00   0.0000000000E+00   0.0000000000E+00   0.7407998033E+00   0.2953202251E+02  -0.3037628729E-04   0.4677417668E+01  -0.8343257412E-11  -0.5268211664E-10
   0.2972254776E+00   0.1876607809E+01  -0.1903067554E-11   0.7408300251E+00   0.2953205367E+02   0.4047431124E-09   0.4677417241E+01   0.2342229499E-15  -0.3952467882E-14
  -0.4229251803E+00   0.1990668546E+01  -0.1903153322E-11   0.7408300250E+00   0.2953205366E+02   0.4046195957E-09   0.4677417241E+01  -0.1028236861E-15  -0.3240460373E-15
  -0.7201506699E+00   0.1140606608E+00   0.0000000000E+00   0.7408605863E+00   0.2953208448E+02   0.3037629566E-04   0.4677417860E+01  -0.8346361806E-11  -0.5268207500E-10
   0.2048178477E-15  -0.3243996017E-16   0.7291274386E+00   0.7407998032E+00   0.2953202251E+02  -0.3037628611E-04   0.4677417668E+01   0.8344964178E-11   0.5268303920E-10
   0.2972254776E+00   0.1876607809E+01   0.7291274386E+00   0.7408300250E+00   0.2953205366E+02   0.4046690349E-09   0.4677417241E+01  -0.2825050428E-15  -0.1741189580E-14
  -0.4229251803E+00   0.1990668546E+01   0.7291274386E+00   0.7408300250E+00   0.2953205366E+02   0.4042069018E-09   0.4677417240E+01  -0.8813419764E-15   0.2343525001E-15
  -0.7201506699E+00   0.1140606608E+00   0.7291274386E+00   0.7408605862E+00   0.2953208447E+02   0.3037629599E-04   0.4677417860E+01   0.8342624606E-11   0.5268790974E-10
   0.5944509672E+00   0.3753215694E+01   0.1587197148E-16   0.7408605863E+00   0.2953208448E+02   0.3037629608E-04   0.4677417861E+01   0.8341808288E-11   0.5267931405E-10
  -0.1256997027E+00   0.3867276355E+01   0.1325764819E-15   0.7407998032E+00   0.2953202251E+02  -0.3037628710E-04   0.4677417668E+01   0.8345114771E-11   0.5268188626E-10
   0.5944509672E+00   0.3753215694E+01   0.7291274386E+00   0.7408605862E+00   0.2953208447E+02   0.3037629610E-04   0.4677417860E+01  -0.8344867345E-11  -0.5268182776E-10
  -0.1256997027E+00   0.3867276355E+01   0.7291274386E+00   0.7407998031E+00   0.2953202250E+02  -0.3037628690E-04   0.4677417667E+01  -0.8342849265E-11  -0.5268739021E-10
     1     2     3     4     5     6     7     8
     2     9    10     3     6    11    12     7
 VARIABLES = X,Y,Z,S11,S22,S33,S12,S13,S23
 ZONE, T="0.1100D+02" F=FEPOINT, I=   12 J=    2 ET=BRICK
   0.0000000000E+00   0.0000000000E+00   0.0000000000E+00  -0.4580207794E-03   0.3027241629E+02  -0.4580207794E-03   0.6525915489E-08   0.1787266328E-14   0.7504441986E-08
   0.2329319515E-09   0.1899999422E+01   0.2677570856E-09  -0.9108159859E-07   0.3027288360E+02  -0.1054419156E-06  -0.8292926910E-05   0.1533601076E-14  -0.5303868631E-14
  -0.7291274388E+00   0.1900000578E+01   0.2677569575E-09  -0.9108117399E-07   0.3027288359E+02  -0.1054414858E-06  -0.8292926907E-05   0.4222693056E-14  -0.2792452528E-14
  -0.7291274386E+00   0.0000000000E+00   0.0000000000E+00   0.4580207900E-03   0.3027335109E+02   0.4580207900E-03  -0.6526678774E-08  -0.3548465273E-14   0.7504435118E-08
   0.2073709279E-15   0.6162975822E-32   0.7291274386E+00  -0.4580207796E-03   0.3027241629E+02  -0.4580207796E-03   0.6525902028E-08   0.1525091061E-14  -0.7504441689E-08
   0.2329320625E-09   0.1899999422E+01   0.7291274383E+00  -0.9108137571E-07   0.3027288359E+02  -0.1054416930E-06  -0.8292926907E-05  -0.1035894956E-14  -0.5475838868E-14
  -0.7291274388E+00   0.1900000578E+01   0.7291274383E+00  -0.9108107943E-07   0.3027288359E+02  -0.1054413915E-06  -0.8292926898E-05   0.1655650341E-14   0.4360803142E-15
  -0.7291274386E+00   0.1110223025E-15   0.7291274386E+00   0.4580207905E-03   0.3027335109E+02   0.4580207905E-03  -0.6526667340E-08  -0.3808185582E-14  -0.7504434275E-08
   0.0000000000E+00   0.3800000000E+01   0.1587197148E-16   0.4580207909E-03   0.3027335109E+02   0.4580207909E-03  -0.6526672253E-08  -0.7837736368E-15  -0.7504439086E-08
  -0.7291274386E+00   0.3800000000E+01   0.1325764819E-15  -0.4580207798E-03   0.3027241628E+02  -0.4580207798E-03   0.6525926565E-08  -0.2917706016E-14  -0.7504438021E-08
   0.0000000000E+00   0.3800000000E+01   0.7291274386E+00   0.4580207913E-03   0.3027335109E+02   0.4580207913E-03  -0.6526676451E-08   0.2793077834E-15   0.7504444243E-08
  -0.7291274386E+00   0.3800000000E+01   0.7291274386E+00  -0.4580207792E-03   0.3027241628E+02  -0.4580207792E-03   0.6525909919E-08  -0.1852171423E-14   0.7504437827E-08
     1     2     3     4     5     6     7     8
     2     9    10     3     6    11    12     7
